ITEM: TIMESTEP 
0
ITEM: NUMBER OF ATOMS
50
ITEM: BOX BOUNDS pp pp pp
0	40.1
0	40.1
0	40.1
ITEM: ATOMS id x y z vx vy vz
0 20.05 20.05 20.05 0.266464 0.255015 0 
1 21.1897 20.6753 20.05 -0.02009 -0.211246 0 
2 22.303 20.004 20.05 -0.232117 0.217829 0 
3 23.5828 19.7761 20.05 0.0513996 -0.193897 0 
4 23.7137 21.0695 20.05 0.0175546 0.0725452 0 
5 22.6833 21.8621 20.05 0.149715 0.10282 0 
6 22.73 23.1613 20.05 0.115092 0.028858 0 
7 21.4623 23.4491 20.05 -0.101559 -0.0890197 0 
8 21.4082 24.748 20.05 -0.194107 -0.224537 0 
9 20.1428 24.4502 20.05 0.206205 -0.169879 0 
10 20.7414 25.6041 20.05 0.0651329 -0.183978 0 
11 20.0799 26.7232 20.05 0.0253368 -0.13611 0 
12 19.4456 27.858 20.05 0.0500262 -0.0758815 0 
13 19.1228 29.1173 20.05 0.0488818 0.141319 0 
14 19.8073 30.2225 20.05 -0.00130589 -0.240346 0 
15 20.8516 29.4482 20.05 -0.0756337 0.0882775 0 
16 21.92 28.7076 20.05 -0.221695 0.0368386 0 
17 20.8308 27.998 20.05 -0.187835 0.064763 0 
18 21.6526 26.9907 20.05 0.0357436 -0.115418 0 
19 22.772 26.3296 20.05 -0.133268 0.233546 0 
20 23.5854 27.3436 20.05 0.153988 -0.210026 0 
21 23.7287 28.6357 20.05 -0.0310767 0.176003 0 
22 22.7067 27.8323 20.05 -0.0327857 -0.23473 0 
23 22.8442 29.125 20.05 -0.212769 0.020618 0 
24 22.7177 30.4188 20.05 -0.0620377 0.129264 0 
25 21.5102 30.9003 20.05 -0.00351848 0.099722 0 
26 20.2624 31.2651 20.05 0.249144 0.0434001 0 
27 19.5089 32.3245 20.05 0.231596 -0.0997165 0 
28 20.8028 32.4499 20.05 0.0143196 0.193566 0 
29 21.9524 31.8428 20.05 0.105127 -0.175799 0 
30 23.2033 31.4888 20.05 0.0593039 -0.242116 0 
31 23.4961 32.7554 20.05 -0.133848 0.0238072 0 
32 22.2181 32.9938 20.05 -0.0219211 0.0512891 0 
33 21.6096 34.1426 20.05 0.0291211 -0.171771 0 
34 22.885 33.8906 20.05 -0.0836601 -0.0124641 0 
35 22.5979 35.1585 20.05 0.0502551 0.0261571 0 
36 23.8945 35.2527 20.05 -0.21434 0.249171 0 
37 23.3678 36.4412 20.05 -0.119733 0.0206333 0 
38 22.3266 37.2196 20.05 -0.138563 -0.193912 0 
39 22.0429 38.4882 20.05 -0.0291082 0.12168 0 
40 23.3425 38.5209 20.05 -0.0322059 0.173562 0 
41 24.5409 38.0172 20.05 0.0638511 -0.00787103 0 
42 25.808 37.7267 20.05 0.202451 0.0497937 0 
43 24.7779 36.9337 20.05 -0.159972 0.012378 0 
44 25.6581 35.977 20.05 -0.0951503 0.22436 0 
45 26.9354 35.7351 20.05 0.257216 0.0798697 0 
46 27.9167 34.8824 20.05 -0.179503 -0.102524 0 
47 28.3123 33.6441 20.05 0.154384 0.108557 0 
48 29.2209 34.5738 20.05 0.164776 -0.198764 0 
49 29.6409 33.3435 20.05 -0.049281 0.244364 0 
ITEM: TIMESTEP 
200
ITEM: NUMBER OF ATOMS
50
ITEM: BOX BOUNDS pp pp pp
0	40.1
0	40.1
0	40.1
ITEM: ATOMS id x y z vx vy vz
0 20.1435 20.1215 20.05 0.64618 0.442775 0 
1 21.1885 20.5925 20.05 0.0303393 -0.594882 0 
2 22.2654 20.0707 20.05 -0.146164 0.442347 0 
3 23.5553 19.7892 20.05 -0.324986 0.331278 0 
4 23.6717 21.0645 20.05 -0.440279 -0.119067 0 
5 22.7439 21.8944 20.05 0.45451 0.21834 0 
6 22.7083 23.1334 20.05 -0.331165 -0.307963 0 
7 21.4732 23.4725 20.05 0.203279 0.306828 0 
8 21.3535 24.6218 20.05 -0.406923 -0.842507 0 
9 20.2561 24.4583 20.05 0.863371 0.236286 0 
10 20.6988 25.603 20.05 -0.365162 0.00380769 0 
11 20.113 26.7186 20.05 0.305301 0.0903611 0 
12 19.5032 27.8512 20.05 0.544251 0.0059993 0 
13 19.1775 29.1424 20.05 0.502848 0.110903 0 
14 19.8379 30.1427 20.05 0.335307 -0.50318 0 
15 20.8364 29.4552 20.05 -0.0874633 -0.0177166 0 
16 21.6946 28.6264 20.05 -1.26478 -0.411864 0 
17 20.8104 28.0033 20.05 -0.145137 -0.0912729 0 
18 21.6855 27.0024 20.05 0.293967 0.265599 0 
19 22.7325 26.4532 20.05 -0.245117 0.999069 0 
20 23.7068 27.2472 20.05 0.394453 -0.386045 0 
21 23.8175 28.5299 20.05 0.269425 -0.835325 0 
22 22.5593 27.891 20.05 -0.770122 0.356463 0 
23 22.7919 29.272 20.05 -0.330942 0.761395 0 
24 22.6709 30.4478 20.05 -0.427615 0.13227 0 
25 21.4568 30.8219 20.05 -0.307443 -0.424113 0 
26 20.3417 31.3059 20.05 0.517866 0.312147 0 
27 19.6263 32.2715 20.05 0.943776 -0.428406 0 
28 20.8072 32.427 20.05 0.0309443 -0.422867 0 
29 22.0329 31.918 20.05 0.455092 0.295694 0 
30 23.1602 31.4738 20.05 -0.476023 0.138117 0 
31 23.3876 32.7623 20.05 -0.959125 0.0432589 0 
32 22.2103 32.9917 20.05 -0.0134079 0.0995593 0 
33 21.699 34.0764 20.05 0.85018 -0.485992 0 
34 22.8462 33.9131 20.05 -0.297356 0.222311 0 
35 22.652 35.1239 20.05 0.470433 -0.370594 0 
36 23.7894 35.3368 20.05 -0.814621 0.5814 0 
37 23.338 36.4226 20.05 -0.190536 -0.206269 0 
38 22.3332 37.2037 20.05 0.208787 0.0345707 0 
39 22.0906 38.4715 20.05 0.509812 -0.29008 0 
40 23.3253 38.5255 20.05 -0.146336 -0.127303 0 
41 24.5525 38.03 20.05 0.0739676 0.0582992 0 
42 25.7709 37.7111 20.05 -0.580557 -0.213336 0 
43 24.7889 36.9089 20.05 0.263694 -0.181285 0 
44 25.6457 36.0539 20.05 -0.0418028 0.550802 0 
45 26.9786 35.73 20.05 0.184596 -0.135128 0 
46 27.8999 34.8401 20.05 0.0202854 -0.319274 0 
47 28.3979 33.7291 20.05 0.650965 0.675095 0 
48 29.2006 34.4731 20.05 -0.334584 -0.656861 0 
49 29.5775 33.4417 20.05 -0.575987 0.656352 0 
ITEM: TIMESTEP 
400
ITEM: NUMBER OF ATOMS
50
ITEM: BOX BOUNDS pp pp pp
0	40.1
0	40.1
0	40.1
ITEM: ATOMS id x y z vx vy vz
0 20.2198 20.1902 20.05 -0.0893825 0.181818 0 
1 21.2632 20.4884 20.05 0.659919 -0.287616 0 
2 22.2755 20.1669 20.05 0.531872 0.430354 0 
3 23.4508 19.9089 20.05 -0.733267 0.798964 0 
4 23.5402 21.0217 20.05 -0.844489 -0.27228 0 
5 22.8577 21.9432 20.05 0.643404 0.228649 0 
6 22.601 23.0473 20.05 -0.698961 -0.494249 0 
7 21.5516 23.4767 20.05 0.578338 -0.502831 0 
8 21.4138 24.5574 20.05 0.833287 0.41048 0 
9 20.2818 24.5127 20.05 -0.505318 0.259428 0 
10 20.625 25.5818 20.05 -0.332114 -0.141002 0 
11 20.2024 26.7664 20.05 0.597768 0.428405 0 
12 19.6557 27.858 20.05 0.504941 0.039497 0 
13 19.316 29.1436 20.05 0.823844 -0.214483 0 
14 19.936 30.0535 20.05 0.527919 -0.158273 0 
15 20.8175 29.4449 20.05 -0.00327262 -0.108183 0 
16 21.5673 28.64 20.05 -0.264679 0.2416 0 
17 20.6713 27.8742 20.05 -0.464777 -0.999737 0 
18 21.7161 27.1204 20.05 -0.33687 0.903858 0 
19 22.7178 26.7095 20.05 0.264452 1.45773 0 
20 23.7219 27.2062 20.05 -0.173523 -0.0467772 0 
21 23.8066 28.3297 20.05 -0.336884 -1.13259 0 
22 22.4372 27.9348 20.05 -0.331317 0.140778 0 
23 22.7075 29.3708 20.05 -0.537364 0.210934 0 
24 22.5427 30.4947 20.05 -0.831845 0.425421 0 
25 21.4148 30.7617 20.05 -0.0463824 -0.23377 0 
26 20.4704 31.3262 20.05 0.743574 -0.519752 0 
27 19.8076 32.1799 20.05 0.417643 -0.308784 0 
28 20.8822 32.3218 20.05 1.12413 -0.328167 0 
29 22.075 31.905 20.05 -0.413474 -0.0994717 0 
30 23.054 31.5337 20.05 -0.18846 0.279699 0 
31 23.1719 32.7534 20.05 -0.614245 -0.304378 0 
32 22.1776 33.029 20.05 -0.740749 -0.0633545 0 
33 21.8018 34.0157 20.05 -0.24771 0.288345 0 
34 22.8964 33.9467 20.05 1.07146 -0.166135 0 
35 22.6864 35.0053 20.05 -0.389955 -0.708391 0 
36 23.6888 35.4397 20.05 0.146301 0.223066 0 
37 23.2604 36.4247 20.05 -0.706291 0.535831 0 
38 22.4116 37.235 20.05 0.577866 0.265812 0 
39 22.2296 38.3705 20.05 0.651167 -0.709855 0 
40 23.2978 38.4699 20.05 0.0830978 -0.420917 0 
41 24.5699 38.0161 20.05 -0.03351 -0.166986 0 
42 25.5941 37.6428 20.05 -0.825839 -0.332565 0 
43 24.8518 36.8993 20.05 -0.0153054 0.0559093 0 
44 25.6562 36.1823 20.05 0.304031 0.594187 0 
45 27.0139 35.6809 20.05 0.181278 -0.353954 0 
46 27.9267 34.7673 20.05 0.226269 -0.317183 0 
47 28.3884 33.7502 20.05 -0.449137 -0.233601 0 
48 29.1988 34.6118 20.05 0.0880724 1.42798 0 
49 29.4819 33.4576 20.05 -0.425502 -0.203468 0 
ITEM: TIMESTEP 
600
ITEM: NUMBER OF ATOMS
50
ITEM: BOX BOUNDS pp pp pp
0	40.1
0	40.1
0	40.1
ITEM: ATOMS id x y z vx vy vz
0 20.19 20.2226 20.05 -0.0831049 0.175065 0 
1 21.319 20.4621 20.05 -0.00779046 -0.0825586 0 
2 22.3914 20.278 20.05 -0.31362 1.01183 0 
3 23.4027 19.9276 20.05 1.02193 -0.867948 0 
4 23.3686 21.0331 20.05 -0.714824 -0.0660724 0 
5 22.9769 21.9891 20.05 0.481243 0.368607 0 
6 22.5442 22.9333 20.05 0.120165 -0.403295 0 
7 21.5659 23.4336 20.05 -0.564215 0.272715 0 
8 21.518 24.6574 20.05 0.177016 0.439104 0 
9 20.2177 24.5393 20.05 -0.114861 -0.00860047 0 
10 20.584 25.5903 20.05 -0.056765 0.26217 0 
11 20.3189 26.8185 20.05 0.405628 -0.25032 0 
12 19.558 27.8768 20.05 -0.467713 0.125752 0 
13 19.5078 29.0451 20.05 1.17822 -0.622277 0 
14 19.9912 30.1437 20.05 0.147666 0.829237 0 
15 20.8452 29.4289 20.05 0.0798365 0.10391 0 
16 21.5704 28.6034 20.05 0.288977 -0.58408 0 
17 20.7746 27.7954 20.05 -0.628429 1.36712 0 
18 21.6349 27.2324 20.05 0.958344 -0.447073 0 
19 22.6696 26.982 20.05 -0.767624 0.960063 0 
20 23.7739 27.1292 20.05 0.796689 -0.930978 0 
21 23.6912 28.222 20.05 -0.865792 0.223921 0 
22 22.4785 28.0106 20.05 0.591797 0.797577 0 
23 22.5602 29.3788 20.05 -0.967317 -0.0880842 0 
24 22.4714 30.5934 20.05 0.786017 0.444031 0 
25 21.4279 30.6797 20.05 -0.375636 -0.592885 0 
26 20.5153 31.2201 20.05 -0.402828 -0.208909 0 
27 19.8839 32.1347 20.05 0.567215 -0.203704 0 
28 21.0643 32.3146 20.05 -0.539354 0.479171 0 
29 21.9985 31.8267 20.05 0.921772 -1.2838 0 
30 23.0684 31.5671 20.05 0.00978489 0.0167557 0 
31 23.1129 32.659 20.05 -0.45708 -0.372855 0 
32 21.9541 32.9853 20.05 -1.05867 -0.203124 0 
33 21.7818 34.1618 20.05 0.163039 0.744148 0 
34 23.0792 33.8054 20.05 0.573865 -0.924932 0 
35 22.5842 34.8961 20.05 -0.369171 -0.512558 0 
36 23.7121 35.4642 20.05 -0.103219 0.137104 0 
37 23.1724 36.4816 20.05 0.336186 -0.59347 0 
38 22.5092 37.2885 20.05 0.135781 0.217916 0 
39 22.2539 38.2933 20.05 -0.214494 0.521258 0 
40 23.4306 38.3572 20.05 0.846819 -0.736329 0 
41 24.4695 37.9919 20.05 -0.676374 -0.205641 0 
42 25.598 37.6337 20.05 0.209461 -0.108851 0 
43 24.6857 36.8453 20.05 -1.02954 -0.319403 0 
44 25.772 36.2923 20.05 0.63207 0.677675 0 
45 27.0553 35.5898 20.05 0.243072 -0.5519 0 
46 27.9764 34.7603 20.05 0.258317 0.269625 0 
47 28.3353 33.7082 20.05 -0.228418 -0.169819 0 
48 29.1504 34.8245 20.05 -0.556819 0.705036 0 
49 29.3889 33.4606 20.05 -0.367256 0.18968 0 
ITEM: TIMESTEP 
800
ITEM: NUMBER OF ATOMS
50
ITEM: BOX BOUNDS pp pp pp
0	40.1
0	40.1
0	40.1
ITEM: ATOMS id x y z vx vy vz
0 20.1828 20.2595 20.05 -0.151579 0.162699 0 
1 21.2497 20.4519 20.05 -0.332129 -0.0144999 0 
2 22.3757 20.4596 20.05 -0.772799 0.331509 0 
3 23.5918 19.7705 20.05 0.750466 -0.603381 0 
4 23.3043 20.8833 20.05 0.74858 -0.521709 0 
5 23.1059 22.0223 20.05 0.698012 0.0520166 0 
6 22.4762 23.0316 20.05 -0.55849 0.813228 0 
7 21.4505 23.5362 20.05 -0.546855 0.729945 0 
8 21.4819 24.7233 20.05 -0.550907 0.230048 0 
9 20.2475 24.5418 20.05 0.452186 0.101518 0 
10 20.5952 25.6515 20.05 0.163503 0.220082 0 
11 20.4208 26.7813 20.05 0.669061 0.0778836 0 
12 19.5226 27.8735 20.05 -0.108643 -0.237065 0 
13 19.8131 28.9608 20.05 1.92582 -0.184836 0 
14 20.0258 30.2492 20.05 0.0740052 -0.259664 0 
15 20.8502 29.4596 20.05 0.0142788 0.130018 0 
16 21.5733 28.5492 20.05 -0.551014 0.0441167 0 
17 20.5741 28.0815 20.05 -1.08835 1.27464 0 
18 21.5603 27.2425 20.05 -1.03224 0.518183 0 
19 22.8239 27.0344 20.05 1.20111 0.282783 0 
20 23.9021 26.972 20.05 0.60778 -0.557663 0 
21 23.6019 28.2476 20.05 1.09522 -0.0183925 0 
22 22.5595 28.22 20.05 -0.668302 0.689625 0 
23 22.3292 29.3381 20.05 -1.2425 -0.186521 0 
24 22.6095 30.6236 20.05 0.225556 -0.367956 0 
25 21.3746 30.5219 20.05 -0.106157 -0.898772 0 
26 20.4615 31.208 20.05 0.33693 0.302903 0 
27 19.9159 32.1516 20.05 -0.865526 0.356677 0 
28 20.9517 32.3382 20.05 0.13913 -0.199257 0 
29 22.0445 31.5853 20.05 -0.38574 -1.00193 0 
30 23.225 31.5344 20.05 1.40398 -0.0581386 0 
31 22.9449 32.6113 20.05 -1.23397 -0.400224 0 
32 21.851 32.975 20.05 -0.0075848 0.0996658 0 
33 21.7467 34.1599 20.05 -0.272009 -0.529593 0 
34 23.1211 33.6844 20.05 -0.103545 -0.0803854 0 
35 22.6791 34.8729 20.05 1.02794 0.0382672 0 
36 23.692 35.403 20.05 0.0692858 -1.03874 0 
37 23.2606 36.3985 20.05 0.242535 0.330189 0 
38 22.5519 37.314 20.05 0.399555 0.256376 0 
39 22.2336 38.4802 20.05 0.123516 0.88284 0 
40 23.3886 38.2288 20.05 -0.949306 -0.672466 0 
41 24.5186 37.8669 20.05 0.732293 -0.679059 0 
42 25.5735 37.5533 20.05 -0.369001 -0.683676 0 
43 24.5164 36.7963 20.05 -0.702229 -0.397156 0 
44 25.872 36.4733 20.05 0.361773 1.08212 0 
45 27.1102 35.4692 20.05 0.204013 -0.557502 0 
46 27.986 34.8327 20.05 -0.400728 0.268188 0 
47 28.2489 33.7165 20.05 -0.493802 0.270818 0 
48 29.0424 34.9062 20.05 -0.141693 0.150786 0 
49 29.3657 33.5216 20.05 -0.031435 0.451463 0 
ITEM: TIMESTEP 
1000
ITEM: NUMBER OF ATOMS
50
ITEM: BOX BOUNDS pp pp pp
0	40.1
0	40.1
0	40.1
ITEM: ATOMS id x y z vx vy vz
0 20.0907 20.2812 20.05 -0.697446 0.0684935 0 
1 21.1732 20.4585 20.05 -0.678995 0.0598881 0 
2 22.2679 20.4969 20.05 0.258702 0.217233 0 
3 23.7135 19.6852 20.05 0.491026 -0.259359 0 
4 23.504 20.8177 20.05 0.823522 -0.269788 0 
5 23.2246 22.0253 20.05 0.508441 -0.067961 0 
6 22.371 23.1691 20.05 -0.52402 0.595915 0 
7 21.3385 23.7042 20.05 -0.590211 0.771158 0 
8 21.3499 24.7885 20.05 0.0410459 0.725881 0 
9 20.3569 24.5666 20.05 -0.0959142 -0.0821239 0 
10 20.6515 25.6621 20.05 0.359456 0.0218086 0 
11 20.5261 26.8339 20.05 -0.0616346 0.138558 0 
12 19.4385 27.8049 20.05 -0.471827 -0.332847 0 
13 19.9338 29.1075 20.05 -0.693532 0.956214 0 
14 20.0571 30.1475 20.05 0.366498 -0.187193 0 
15 20.9653 29.4874 20.05 0.823941 -0.135194 0 
16 21.4397 28.5571 20.05 0.446124 -0.144628 0 
17 20.5074 28.0318 20.05 -0.726855 -1.7438 0 
18 21.3897 27.4416 20.05 -0.133369 1.59329 0 
19 22.9539 27.1764 20.05 0.428177 1.09367 0 
20 24.0905 26.8963 20.05 1.00788 -0.175354 0 
21 23.8198 28.1829 20.05 0.821514 -0.648535 0 
22 22.5242 28.2564 20.05 0.0550033 -0.055985 0 
23 22.093 29.4085 20.05 -1.15025 0.863181 0 
24 22.6136 30.5111 20.05 -0.169016 -0.637307 0 
25 21.3998 30.4102 20.05 0.687543 0.47077 0 
26 20.5896 31.2945 20.05 0.631425 0.0254288 0 
27 19.7255 32.2123 20.05 -0.665688 0.166887 0 
28 21.0214 32.2455 20.05 0.497264 -0.383349 0 
29 21.9444 31.4327 20.05 -0.642269 -0.562367 0 
30 23.4428 31.5178 20.05 0.699779 -0.120423 0 
31 22.7414 32.4626 20.05 -0.436722 -1.18074 0 
32 21.8249 33.0251 20.05 -0.560151 0.144723 0 
33 21.7604 34.0651 20.05 0.402258 0.00235194 0 
34 23.0334 33.7072 20.05 -0.807632 0.0605396 0 
35 22.779 34.7815 20.05 -0.171864 -0.921225 0 
36 23.7899 35.2552 20.05 0.961836 -0.266547 0 
37 23.337 36.4776 20.05 0.388751 0.301378 0 
38 22.5927 37.3404 20.05 -0.618838 -0.688276 0 
39 22.2787 38.6117 20.05 0.214727 0.472052 0 
40 23.2823 38.1225 20.05 0.625137 0.275675 0 
41 24.4903 37.8414 20.05 -1.08997 0.124967 0 
42 25.5323 37.5239 20.05 -0.00843915 0.404236 0 
43 24.3879 36.6562 20.05 -0.418923 -0.660141 0 
44 25.9913 36.5097 20.05 0.894347 -0.761954 0 
45 27.0196 35.4541 20.05 -0.878321 0.246222 0 
46 27.9566 34.805 20.05 -0.00591809 -0.00411362 0 
47 28.1935 33.7831 20.05 0.038901 0.0370728 0 
48 29.0711 34.8805 20.05 0.223202 -0.447105 0 
49 29.3244 33.6539 20.05 -0.398701 0.898721 0 
ITEM: TIMESTEP 
1200
ITEM: NUMBER OF ATOMS
50
ITEM: BOX BOUNDS pp pp pp
0	40.1
0	40.1
0	40.1
ITEM: ATOMS id x y z vx vy vz
0 19.9283 20.2911 20.05 -0.794788 0.052069 0 
1 21.0774 20.4752 20.05 -0.293764 0.0909838 0 
2 22.3665 20.5462 20.05 0.612517 0.268119 0 
3 23.7926 19.6602 20.05 0.306176 -0.0132716 0 
4 23.6167 20.7811 20.05 0.297108 -0.0683905 0 
5 23.3173 21.9816 20.05 0.429827 -0.391466 0 
6 22.2519 23.2861 20.05 -0.690367 0.601578 0 
7 21.2112 23.8391 20.05 -0.652798 0.735652 0 
8 21.4973 24.9561 20.05 0.839563 0.617246 0 
9 20.2768 24.5235 20.05 -0.0944669 -0.118337 0 
10 20.681 25.7092 20.05 -0.0909179 0.302684 0 
11 20.4887 26.7938 20.05 -0.0705833 -0.646221 0 
12 19.2526 27.7318 20.05 -1.36497 -0.381334 0 
13 19.8078 29.0865 20.05 -0.427899 -0.480724 0 
14 20.1981 30.2885 20.05 0.483315 0.579699 0 
15 20.8728 29.4854 20.05 -1.14813 0.169032 0 
16 21.5222 28.6222 20.05 0.0948489 0.800056 0 
17 20.3609 27.8688 20.05 -0.172917 0.195604 0 
18 21.5376 27.4606 20.05 0.912437 -1.00712 0 
19 23.0997 27.3741 20.05 0.957866 0.324258 0 
20 24.2406 26.9172 20.05 0.492132 0.343986 0 
21 23.9302 27.991 20.05 0.552576 -0.990832 0 
22 22.5454 28.2862 20.05 0.111576 0.579217 0 
23 22.0228 29.5726 20.05 0.114256 -0.209832 0 
24 22.5845 30.4515 20.05 0.363355 0.623538 0 
25 21.4712 30.4583 20.05 -0.531269 -0.373971 0 
26 20.683 31.1717 20.05 0.629911 -0.147566 0 
27 19.6603 32.2151 20.05 -0.0319165 -0.120114 0 
28 21.1013 32.1937 20.05 -0.243112 -0.495278 0 
29 21.886 31.5015 20.05 0.221404 0.97079 0 
30 23.5187 31.484 20.05 0.115118 -0.245734 0 
31 22.65 32.2063 20.05 -0.521664 -1.09356 0 
32 21.8074 33.0273 20.05 0.686214 0.430798 0 
33 21.8766 34.1634 20.05 0.213903 0.244536 0 
34 22.819 33.5652 20.05 -1.3012 -1.32946 0 
35 22.7516 34.726 20.05 0.461605 0.512686 0 
36 23.9432 35.2412 20.05 0.525736 0.10604 0 
37 23.2945 36.4977 20.05 -0.29339 -0.0640605 0 
38 22.4618 37.2292 20.05 -0.568431 -0.202088 0 
39 22.343 38.662 20.05 0.427257 0.0452957 0 
40 23.3479 38.1977 20.05 -0.796081 0.534897 0 
41 24.3323 37.7885 20.05 0.288345 -0.924809 0 
42 25.5097 37.5592 20.05 -0.321278 -0.0652597 0 
43 24.4696 36.5878 20.05 0.760261 -0.092918 0 
44 26.1606 36.3631 20.05 0.745975 -0.630932 0 
45 26.8493 35.5104 20.05 -0.751286 0.263728 0 
46 27.924 34.9 20.05 -0.196397 0.556534 0 
47 28.2013 33.7362 20.05 -0.253344 -0.105642 0 
48 29.0747 34.8042 20.05 -0.43513 0.609535 0 
49 29.2867 33.7989 20.05 0.402807 -0.359645 0 
ITEM: TIMESTEP 
1400
ITEM: NUMBER OF ATOMS
50
ITEM: BOX BOUNDS pp pp pp
0	40.1
0	40.1
0	40.1
ITEM: ATOMS id x y z vx vy vz
0 19.8074 20.3075 20.05 -0.390683 0.114875 0 
1 21.0195 20.4898 20.05 -0.3408 0.0512477 0 
2 22.5163 20.6045 20.05 0.875171 0.315478 0 
3 23.8368 19.6755 20.05 0.132606 0.172937 0 
4 23.6241 20.7897 20.05 -0.142056 0.0573122 0 
5 23.3952 21.869 20.05 0.315259 -0.644598 0 
6 22.0946 23.4148 20.05 -0.7956 0.646572 0 
7 21.1549 23.9754 20.05 0.271651 0.504336 0 
8 21.6165 25.0381 20.05 0.357022 0.203398 0 
9 20.2704 24.5838 20.05 -0.264481 0.853778 0 
10 20.6715 25.6353 20.05 -0.0193355 -0.810622 0 
11 20.483 26.7882 20.05 0.0363809 0.505547 0 
12 19.0414 27.6746 20.05 -0.701753 -0.17366 0 
13 19.7496 28.9639 20.05 -0.172744 -0.767122 0 
14 20.0966 30.3471 20.05 -0.698342 0.337612 0 
15 20.779 29.42 20.05 -0.174532 -0.367561 0 
16 21.4286 28.5508 20.05 -0.593319 -1.25305 0 
17 20.3478 27.9574 20.05 -0.00416365 0.571288 0 
18 21.6904 27.3211 20.05 0.628658 -0.381875 0 
19 23.1436 27.2915 20.05 0.055448 -0.448375 0 
20 24.323 26.9022 20.05 0.29562 -0.419031 0 
21 24.1591 28.0209 20.05 1.09395 0.710337 0 
22 22.5836 28.4059 20.05 0.172919 0.497371 0 
23 22.1275 29.5136 20.05 0.73163 -0.220107 0 
24 22.6493 30.676 20.05 0.124519 1.19183 0 
25 21.3963 30.357 20.05 -0.261428 -0.764551 0 
26 20.7535 31.2733 20.05 -0.439234 0.0867012 0 
27 19.7123 32.1676 20.05 0.593293 -0.352312 0 
28 20.9771 32.3532 20.05 -1.43013 1.04196 0 
29 21.8171 31.3641 20.05 -0.219035 -0.910724 0 
30 23.4944 31.4064 20.05 -0.335096 -0.51244 0 
31 22.7325 32.2475 20.05 0.471328 0.746303 0 
32 21.7337 32.9693 20.05 -0.257241 -0.0562274 0 
33 21.8602 34.1722 20.05 0.083533 -0.10741 0 
34 22.8199 33.4134 20.05 0.880698 -0.289082 0 
35 22.9362 34.8428 20.05 1.00892 0.454185 0 
36 24.0005 35.2993 20.05 0.0676231 0.495377 0 
37 23.3026 36.4727 20.05 0.297033 -0.117519 0 
38 22.3794 37.2497 20.05 -0.164539 0.319673 0 
39 22.2855 38.7086 20.05 -0.819443 0.340259 0 
40 23.3149 38.1895 20.05 0.427813 -0.598912 0 
41 24.3691 37.5948 20.05 -0.46713 -0.499491 0 
42 25.4366 37.491 20.05 -0.0967507 -0.681289 0 
43 24.6094 36.5676 20.05 0.731698 -0.50366 0 
44 26.174 36.4021 20.05 -0.381715 0.70395 0 
45 26.839 35.4083 20.05 0.336918 -0.923563 0 
46 27.8636 34.9846 20.05 -0.493865 0.256922 0 
47 28.164 33.7855 20.05 0.021899 0.601661 0 
48 28.9537 34.9463 20.05 -0.528327 0.422835 0 
49 29.3689 33.685 20.05 0.180154 -0.400561 0 
ITEM: TIMESTEP 
1600
ITEM: NUMBER OF ATOMS
50
ITEM: BOX BOUNDS pp pp pp
0	40.1
0	40.1
0	40.1
ITEM: ATOMS id x y z vx vy vz
0 19.7728 20.3368 20.05 0.0250168 0.174895 0 
1 20.93 20.4956 20.05 -0.547172 0.00939388 0 
2 22.6042 20.6595 20.05 -0.0482933 0.246476 0 
3 23.8492 19.7044 20.05 0.0377907 -0.187141 0 
4 23.7063 20.7484 20.05 0.986724 -0.110644 0 
5 23.4153 21.8186 20.05 -0.120534 0.0730092 0 
6 22.0511 23.4736 20.05 0.179228 0.0543484 0 
7 21.1221 24.1384 20.05 -0.556175 0.839487 0 
8 21.6746 25.0547 20.05 0.336923 0.190769 0 
9 20.1621 24.6518 20.05 -0.809576 -0.157381 0 
10 20.7136 25.6432 20.05 0.457159 0.825399 0 
11 20.5183 26.9087 20.05 0.331049 0.640233 0 
12 18.9657 27.6654 20.05 -0.0677632 0.0907287 0 
13 19.7002 28.8447 20.05 -0.5639 -0.157576 0 
14 20.0164 30.3606 20.05 -0.151649 -0.300625 0 
15 20.7154 29.3278 20.05 -0.446251 -0.761443 0 
16 21.3832 28.2943 20.05 0.389657 -0.882928 0 
17 20.3676 28.013 20.05 0.02604 -0.357349 0 
18 21.7963 27.2979 20.05 0.500527 -0.0125661 0 
19 23.1774 27.2533 20.05 0.248587 0.0367122 0 
20 24.3352 26.8663 20.05 -0.167309 0.110883 0 
21 24.3301 28.1102 20.05 0.644822 0.147081 0 
22 22.5903 28.4468 20.05 -0.0643475 -0.28493 0 
23 22.2264 29.4773 20.05 0.178823 0.122827 0 
24 22.6351 30.6933 20.05 -0.405569 -0.815264 0 
25 21.3446 30.2416 20.05 -0.153388 -0.15847 0 
26 20.6034 31.2863 20.05 -0.752022 0.166762 0 
27 19.7169 32.0125 20.05 -1.49456 -1.52029 0 
28 20.7177 32.4733 20.05 0.545502 1.02713 0 
29 21.7209 31.3559 20.05 -0.770825 0.43435 0 
30 23.5079 31.4169 20.05 0.39063 0.606807 0 
31 22.7718 32.3373 20.05 -0.00451194 -0.0782992 0 
32 21.8955 33.0639 20.05 0.87072 0.0737293 0 
33 21.9462 34.1255 20.05 0.781642 -0.0524118 0 
34 22.9376 33.421 20.05 0.438907 0.601332 0 
35 23.0862 34.8866 20.05 0.405683 -0.053522 0 
36 24.0278 35.4768 20.05 0.335628 1.35745 0 
37 23.4036 36.4603 20.05 0.728242 0.0197129 0 
38 22.4139 37.3437 20.05 0.506176 0.620108 0 
39 22.1612 38.7277 20.05 -0.413998 -0.162444 0 
40 23.323 38.0534 20.05 -0.729777 -0.535587 0 
41 24.2396 37.5127 20.05 -0.147613 -0.918409 0 
42 25.4212 37.3069 20.05 -0.557495 -0.630646 0 
43 24.7573 36.418 20.05 0.600748 -0.755467 0 
44 26.0805 36.5262 20.05 -0.270252 0.120508 0 
45 26.7668 35.3007 20.05 -0.955525 -0.210181 0 
46 27.8334 34.9588 20.05 -0.108783 -0.272269 0 
47 28.2234 33.9675 20.05 0.631569 1.01989 0 
48 28.8991 34.9621 20.05 0.115385 -0.268879 0 
49 29.3464 33.6483 20.05 -0.385886 0.0347017 0 
ITEM: TIMESTEP 
1800
ITEM: NUMBER OF ATOMS
50
ITEM: BOX BOUNDS pp pp pp
0	40.1
0	40.1
0	40.1
ITEM: ATOMS id x y z vx vy vz
0 19.7718 20.3711 20.05 -0.260201 0.140049 0 
1 20.8441 20.5 20.05 -0.0899828 0.0631924 0 
2 22.637 20.7228 20.05 0.471862 0.409799 0 
3 23.8488 19.6019 20.05 -0.0701043 -0.445377 0 
4 23.8706 20.8024 20.05 0.586846 0.289782 0 
5 23.3608 21.8204 20.05 -0.418468 -0.109533 0 
6 22.0648 23.5049 20.05 -0.0709853 0.274805 0 
7 21.0453 24.2252 20.05 -0.177131 0.291177 0 
8 21.7477 25.1412 20.05 0.229886 0.48795 0 
9 19.9955 24.6793 20.05 -0.710541 0.371694 0 
10 20.798 25.7982 20.05 0.406209 0.66576 0 
11 20.6412 26.9297 20.05 0.898868 -0.350147 0 
12 19.0174 27.7174 20.05 0.610039 0.455037 0 
13 19.5544 28.8295 20.05 -0.767164 -0.114036 0 
14 20.0402 30.24 20.05 0.450149 -0.769293 0 
15 20.6516 29.1605 20.05 -0.181758 -0.847832 0 
16 21.4813 28.2869 20.05 0.165356 0.410858 0 
17 20.3187 28.0148 20.05 -0.295675 0.546105 0 
18 21.9396 27.2212 20.05 0.839712 -0.451393 0 
19 23.2209 27.3058 20.05 0.0592439 0.519786 0 
20 24.2702 26.9443 20.05 -0.377608 0.601839 0 
21 24.4187 28.0818 20.05 0.231982 -0.396825 0 
22 22.5634 28.3153 20.05 -0.0479792 -0.880872 0 
23 22.2132 29.5283 20.05 -0.327081 -0.0641087 0 
24 22.5062 30.5487 20.05 -0.846974 -0.316851 0 
25 21.3102 30.2556 20.05 -0.236985 0.221415 0 
26 20.4944 31.3343 20.05 -0.354908 0.156578 0 
27 19.4433 31.7126 20.05 -1.30396 -1.45926 0 
28 20.8557 32.6152 20.05 0.8473 0.381684 0 
29 21.6063 31.4274 20.05 -0.325078 0.249614 0 
30 23.5316 31.5239 20.05 0.0181038 0.276465 0 
31 22.7827 32.28 20.05 0.108827 -0.317452 0 
32 21.981 33.0013 20.05 -0.012072 -0.163685 0 
33 22.1572 34.1874 20.05 1.10193 0.493957 0 
34 23.0248 33.574 20.05 0.493687 0.630364 0 
35 23.1503 34.8456 20.05 0.280257 -0.352684 0 
36 24.0669 35.6232 20.05 -0.213395 -0.49044 0 
37 23.5224 36.5719 20.05 -0.341295 0.644563 0 
38 22.3996 37.3665 20.05 -0.808758 -0.491001 0 
39 22.1231 38.6365 20.05 0.0499539 -0.766748 0 
40 23.2739 38.0695 20.05 0.58441 0.680251 0 
41 24.207 37.2624 20.05 -0.226402 -0.740687 0 
42 25.257 37.3368 20.05 -0.107694 0.440858 0 
43 24.8914 36.3186 20.05 1.10968 -0.00918761 0 
44 26.095 36.4008 20.05 -0.0692448 -0.851361 0 
45 26.5771 35.2869 20.05 -0.919972 0.0955502 0 
46 27.7071 35.0293 20.05 -0.715879 0.568173 0 
47 28.3304 34.0526 20.05 -0.580364 0.108184 0 
48 28.9807 34.8924 20.05 0.672048 -0.0848601 0 
49 29.314 33.6722 20.05 0.641312 -0.00185118 0 
ITEM: TIMESTEP 
2000
ITEM: NUMBER OF ATOMS
50
ITEM: BOX BOUNDS pp pp pp
0	40.1
0	40.1
0	40.1
ITEM: ATOMS id x y z vx vy vz
0 19.6908 20.3957 20.05 -0.340224 0.12939 0 
1 20.8714 20.5183 20.05 0.152474 0.0968612 0 
2 22.7936 20.8224 20.05 0.931131 0.359102 0 
3 23.8233 19.5722 20.05 -0.17772 0.156008 0 
4 23.9319 20.8276 20.05 0.0449213 -0.0202695 0 
5 23.2552 21.7667 20.05 -0.498942 -0.223632 0 
6 22.0217 23.583 20.05 -0.358553 0.504941 0 
7 21.0328 24.3093 20.05 0.0164467 0.566761 0 
8 21.75 25.211 20.05 -0.0614075 0.110627 0 
9 19.921 24.7708 20.05 -0.0011297 0.518456 0 
10 20.8799 25.843 20.05 0.26857 -0.142821 0 
11 20.8384 26.9707 20.05 1.06331 0.836132 0 
12 19.2017 27.8155 20.05 1.05112 0.105995 0 
13 19.4364 28.8425 20.05 -0.189494 0.609068 0 
14 20.1903 30.0822 20.05 0.840681 -0.736024 0 
15 20.6206 29.0721 20.05 -0.158844 0.315977 0 
16 21.4442 28.3532 20.05 -0.201765 0.138752 0 
17 20.2844 28.0474 20.05 -0.121129 -0.514545 0 
18 22.0889 27.198 20.05 0.501734 0.0823596 0 
19 23.2146 27.3904 20.05 0.406534 -0.282673 0 
20 24.2192 26.9909 20.05 -0.157882 -0.423866 0 
21 24.4328 28.0495 20.05 -0.0460256 0.34498 0 
22 22.5475 28.1928 20.05 -0.701809 0.41308 0 
23 22.0773 29.3898 20.05 -0.979347 -0.929785 0 
24 22.3116 30.61 20.05 -1.04936 0.512086 0 
25 21.2504 30.3175 20.05 -0.307019 0.368019 0 
26 20.433 31.3281 20.05 -0.261621 -0.239226 0 
27 19.2198 31.4137 20.05 -0.837063 -1.52899 0 
28 21.0135 32.6107 20.05 0.448588 -0.55021 0 
29 21.5818 31.4608 20.05 -0.0286377 0.145566 0 
30 23.581 31.4821 20.05 0.235866 -0.429505 0 
31 22.7454 32.2727 20.05 -0.277729 -0.000804479 0 
32 21.9898 33.0659 20.05 0.429641 0.899416 0 
33 22.256 34.3092 20.05 -0.0471708 0.361621 0 
34 23.1829 33.6088 20.05 0.756529 -0.0636296 0 
35 23.2339 34.7613 20.05 0.710084 -0.403978 0 
36 24.0102 35.5361 20.05 -0.225357 -0.122092 0 
37 23.2028 36.4876 20.05 -1.6801 -0.489103 0 
38 22.2975 37.3103 20.05 -0.176502 -0.13097 0 
39 22.1834 38.4231 20.05 0.542642 -1.29515 0 
40 23.3565 38.1493 20.05 0.208537 0.10594 0 
41 24.2516 37.3241 20.05 -0.0719532 0.290752 0 
42 25.411 37.4368 20.05 1.18098 0.317564 0 
43 25.0227 36.3083 20.05 -0.297546 0.0425803 0 
44 26.0748 36.2761 20.05 0.216507 0.0614327 0 
45 26.4251 35.2882 20.05 -0.413841 -0.543129 0 
46 27.5856 35.1164 20.05 -0.56124 0.293932 0 
47 28.1721 34.0862 20.05 -0.616299 0.359247 0 
48 29.1078 34.8573 20.05 0.469358 -0.454238 0 
49 29.4366 33.713 20.05 0.37006 0.477993 0 
ITEM: TIMESTEP 
2200
ITEM: NUMBER OF ATOMS
50
ITEM: BOX BOUNDS pp pp pp
0	40.1
0	40.1
0	40.1
ITEM: ATOMS id x y z vx vy vz
0 19.6652 20.4258 20.05 0.0924724 0.171393 0 
1 20.8759 20.5358 20.05 -0.114098 0.0767075 0 
2 22.8653 20.7057 20.05 -0.0383206 -0.923594 0 
3 23.7774 19.6669 20.05 -0.298222 0.78212 0 
4 23.9555 20.8087 20.05 0.285469 -0.097024 0 
5 23.2383 21.8755 20.05 0.074035 0.648561 0 
6 21.9251 23.7082 20.05 -0.578733 0.749684 0 
7 21.022 24.4275 20.05 -0.238716 0.482459 0 
8 21.796 25.1804 20.05 0.442664 -0.134063 0 
9 19.9977 24.8879 20.05 0.729767 0.689502 0 
10 20.8525 25.852 20.05 -0.323747 0.086774 0 
11 21.0754 27.1629 20.05 1.20175 0.796528 0 
12 19.2997 27.7603 20.05 0.112847 -0.273438 0 
13 19.4997 29.0187 20.05 0.707213 0.809683 0 
14 20.1503 30.0853 20.05 -1.07306 0.519485 0 
15 20.6242 29.0456 20.05 0.0332859 -0.204274 0 
16 21.3636 28.2793 20.05 -0.172779 -1.20179 0 
17 20.3948 27.9718 20.05 0.480549 -0.123299 0 
18 22.1201 27.2267 20.05 0.12934 0.375664 0 
19 23.237 27.3718 20.05 -0.120607 0.233484 0 
20 24.2723 26.8685 20.05 0.492883 -0.532173 0 
21 24.3779 28.1034 20.05 -0.530332 0.0129384 0 
22 22.4667 28.3325 20.05 0.110624 0.491874 0 
23 21.8396 29.2492 20.05 -1.3519 -0.117281 0 
24 22.2549 30.6787 20.05 0.548563 0.271749 0 
25 21.2017 30.4014 20.05 -0.365333 0.422911 0 
26 20.4067 31.2332 20.05 -0.00400803 -0.684297 0 
27 19.1239 31.1078 20.05 -0.0988543 -1.53141 0 
28 21.0903 32.443 20.05 0.201822 -0.482282 0 
29 21.531 31.5337 20.05 -0.171117 -0.0171905 0 
30 23.57 31.4128 20.05 -0.372126 -0.241257 0 
31 22.6941 32.2439 20.05 -0.330122 -0.199016 0 
32 22.116 33.2864 20.05 0.718591 0.712707 0 
33 22.253 34.3195 20.05 0.25915 0.168427 0 
34 23.2497 33.5752 20.05 -0.121751 -0.398711 0 
35 23.3594 34.658 20.05 0.495557 -0.423544 0 
36 24.0063 35.6163 20.05 0.0451643 0.772937 0 
37 22.9255 36.3737 20.05 -0.703917 -1.16668 0 
38 22.3016 37.1838 20.05 -0.223446 -0.665686 0 
39 22.3062 38.2839 20.05 0.515068 -0.0371495 0 
40 23.3794 38.1152 20.05 0.194398 -0.445309 0 
41 24.2509 37.3516 20.05 0.108163 -0.00714316 0 
42 25.6063 37.4176 20.05 0.749235 -0.503896 0 
43 24.8759 36.364 20.05 -0.785288 0.518077 0 
44 26.1245 36.3739 20.05 0.0615683 0.560865 0 
45 26.3736 35.1294 20.05 -0.300686 -0.680988 0 
46 27.4829 35.1495 20.05 -0.406155 0.077992 0 
47 28.1019 34.2029 20.05 -0.0849357 0.753682 0 
48 29.1408 34.7761 20.05 -0.301797 0.187877 0 
49 29.4857 33.7864 20.05 0.31987 -0.282581 0 
ITEM: TIMESTEP 
2400
ITEM: NUMBER OF ATOMS
50
ITEM: BOX BOUNDS pp pp pp
0	40.1
0	40.1
0	40.1
ITEM: ATOMS id x y z vx vy vz
0 19.7206 20.4633 20.05 0.377577 0.19599 0 
1 20.833 20.5488 20.05 -0.229952 0.0583428 0 
2 22.8749 20.5319 20.05 0.14349 -0.731612 0 
3 23.6831 19.8212 20.05 -0.61537 0.432236 0 
4 24.0015 20.8552 20.05 0.12279 0.767292 0 
5 23.2527 21.9463 20.05 0.0787675 0.104394 0 
6 21.8324 23.8632 20.05 -0.0400261 0.601086 0 
7 20.9956 24.4909 20.05 -0.0629588 0.358788 0 
8 21.8718 25.1808 20.05 0.195791 0.031372 0 