ITEM: TIMESTEP 
0
ITEM: NUMBER OF ATOMS
50
ITEM: BOX BOUNDS pp pp pp
0	40.1
0	40.1
0	40.1
ITEM: ATOMS id x y z vx vy vz
0 20.05 20.05 20.05 0.0654375 -0.00894284 0 
1 21.0334 20.2315 20.05 -0.410483 0.170186 0 
2 21.9101 20.7126 20.05 -0.397055 0.466887 0 
3 21.6245 21.6709 20.05 0.234129 0.412991 0 
4 20.7888 22.22 20.05 -0.332844 -0.0703308 0 
5 19.9473 22.7603 20.05 -0.220078 0.271721 0 
6 19.1403 23.3508 20.05 -0.294086 -0.34222 0 
7 19.2409 24.3458 20.05 -0.00596057 -0.360989 0 
8 19.4906 25.3141 20.05 -0.0400803 -0.326259 0 
9 18.6979 25.9238 20.05 0.0750661 -0.379361 0 
10 18.6536 26.9228 20.05 0.506811 0.0597391 0 
11 17.7471 27.3449 20.05 0.331513 0.12569 0 
12 17.7831 28.3443 20.05 -0.383993 -0.482575 0 
13 16.8079 28.5657 20.05 -0.372366 0.153492 0 
14 17.2066 29.4828 20.05 0.0124421 0.202993 0 
15 17.165 30.482 20.05 0.00325602 -0.440246 0 
16 18.1357 30.2419 20.05 -0.296161 -0.131215 0 
17 18.0091 29.25 20.05 0.373629 -0.418211 0 
18 18.9796 29.009 20.05 0.529609 -0.156942 0 
19 19.5767 28.2068 20.05 -0.284595 -0.0948982 0 
20 20.0372 29.0945 20.05 0.0859001 -0.121358 0 
21 20.9543 29.4931 20.05 -0.35439 -0.447723 0 
22 20.4454 30.3539 20.05 0.184475 0.402157 0 
23 21.439 30.4674 20.05 -0.200913 0.375178 0 
24 20.951 31.3403 20.05 0.500708 0.194631 0 
25 20.722 32.3137 20.05 -0.0888794 0.432034 0 
26 20.4737 33.2824 20.05 -0.432762 0.0354158 0 
27 19.4748 33.2355 20.05 0.011435 0.0306244 0 
28 20.0014 34.0857 20.05 -0.230027 0.339838 0 
29 19.4188 34.8984 20.05 -0.364217 -0.281427 0 
30 20.4159 34.8224 20.05 0.501715 0.322473 0 
31 21.4158 34.8095 20.05 0.461247 0.00218116 0 
32 22.1954 34.1833 20.05 0.13064 -0.283045 0 
33 22.8276 33.4085 20.05 0.271727 0.0751509 0 
34 21.8736 33.1085 20.05 -0.0604666 -0.416228 0 
35 22.7347 32.6 20.05 -0.34026 0.338159 0 
36 21.8181 32.2001 20.05 -0.308338 0.237143 0 
37 22.6541 31.6514 20.05 0.37079 -0.00920225 0 
38 23.4843 31.0939 20.05 -0.019877 -0.177878 0 
39 24.0036 30.2393 20.05 -0.303577 0.47708 0 
40 23.5268 29.3604 20.05 0.0164095 -0.426238 0 
41 22.7908 28.6833 20.05 -0.17723 0.065446 0 
42 22.9029 27.6896 20.05 0.0149751 0.288811 0 
43 23.8894 27.8532 20.05 0.539832 0.345331 0 
44 24.4013 28.7122 20.05 -0.170608 0.04155 0 
45 24.7208 27.7646 20.05 0.218869 -0.079761 0 
46 25.6803 27.483 20.05 -0.00284768 -0.324703 0 
47 26.6506 27.7249 20.05 0.463292 0.0800339 0 
48 27.6327 27.9136 20.05 -0.151595 0.100298 0 
49 27.9091 28.8746 20.05 0.339784 -0.26748 0 
ITEM: TIMESTEP 
250
ITEM: NUMBER OF ATOMS
50
ITEM: BOX BOUNDS pp pp pp
0	40.1
0	40.1
0	40.1
ITEM: ATOMS id x y z vx vy vz
0 20.0653 20.0475 20.05 0.0524817 -0.0119775 0 
1 20.9322 20.2745 20.05 -0.393364 0.175732 0 
2 21.8106 20.8285 20.05 -0.40005 0.458288 0 
3 21.6824 21.775 20.05 0.226074 0.422532 0 
4 20.7059 22.2023 20.05 -0.328451 -0.0719747 0 
5 19.8931 22.8277 20.05 -0.210247 0.265527 0 
6 19.0661 23.2657 20.05 -0.301347 -0.337324 0 
7 19.2395 24.2555 20.05 -0.00585033 -0.36075 0 
8 19.4808 25.2323 20.05 -0.0372866 -0.32933 0 
9 18.7165 25.8303 20.05 0.0724244 -0.363589 0 
10 18.7799 26.9369 20.05 0.50125 0.0487006 0 
11 17.8306 27.3737 20.05 0.343886 0.0679713 0 
12 17.6865 28.2262 20.05 -0.395819 -0.425693 0 
13 16.7154 28.6044 20.05 -0.365169 0.157154 0 
14 17.1858 29.5356 20.05 -0.0936721 0.105239 0 
15 17.1647 30.3769 20.05 -0.0111565 -0.312562 0 
16 18.0626 30.2083 20.05 -0.285282 -0.141639 0 
17 18.1264 29.1388 20.05 0.480887 -0.44299 0 
18 19.1112 28.971 20.05 0.51821 -0.136784 0 
19 19.5065 28.1823 20.05 -0.270889 -0.110886 0 
20 20.0568 29.0632 20.05 0.0487939 -0.139447 0 
21 20.8668 29.383 20.05 -0.325925 -0.41897 0 
22 20.4911 30.4532 20.05 0.17882 0.385965 0 
23 21.3903 30.5601 20.05 -0.182231 0.360766 0 
24 21.0754 31.391 20.05 0.490242 0.221708 0 
25 20.7003 32.42 20.05 -0.0824627 0.412527 0 
26 20.3665 33.292 20.05 -0.420677 0.0444216 0 
27 19.4766 33.2433 20.05 -0.00241045 0.0317268 0 
28 19.9331 34.1506 20.05 -0.275466 0.241413 0 
29 19.3294 34.8289 20.05 -0.344215 -0.271445 0 
30 20.5502 34.922 20.05 0.524347 0.40918 0 
31 21.5311 34.8102 20.05 0.461549 0.00341638 0 
32 22.2276 34.1131 20.05 0.123858 -0.276301 0 
33 22.9094 33.5229 20.05 0.338885 0.548204 0 
34 21.8636 33.0502 20.05 0.00528833 0.113471 0 
35 22.6364 32.5871 20.05 -0.400337 -0.15586 0 
36 21.7375 32.2138 20.05 -0.355217 -0.290392 0 
37 22.7448 31.6504 20.05 0.347646 0.00565332 0 
38 23.4766 31.0542 20.05 -0.0977896 -0.0517267 0 
39 23.9303 30.3519 20.05 -0.228174 0.327502 0 
40 23.5319 29.2557 20.05 0.0284448 -0.403818 0 
41 22.7461 28.6999 20.05 -0.182211 0.0683003 0 
42 22.9076 27.7615 20.05 0.0250654 0.284372 0 
43 23.9471 27.9485 20.05 0.0973782 0.3795 0 
44 24.3598 28.7232 20.05 -0.152394 0.0563363 0 
45 24.8501 27.7353 20.05 0.623366 -0.12644 0 
46 25.6818 27.4019 20.05 0.0240616 -0.323739 0 
47 26.7624 27.7439 20.05 0.379938 0.0600629 0 
48 27.5973 27.9387 20.05 -0.0867605 0.109956 0 
49 27.9942 28.8082 20.05 0.341958 -0.261987 0 
ITEM: TIMESTEP 
500
ITEM: NUMBER OF ATOMS
50
ITEM: BOX BOUNDS pp pp pp
0	40.1
0	40.1
0	40.1
ITEM: ATOMS id x y z vx vy vz
0 20.0491 20.0356 20.05 -0.235906 -0.103739 0 
1 20.8644 20.3282 20.05 -0.0950206 0.274217 0 
2 21.7095 20.9407 20.05 -0.409329 0.438097 0 
3 21.7361 21.8832 20.05 0.20005 0.444598 0 
4 20.6257 22.184 20.05 -0.310767 -0.0741009 0 
5 19.8436 22.8924 20.05 -0.183354 0.250861 0 
6 18.9886 23.1826 20.05 -0.320091 -0.326926 0 
7 19.238 24.1654 20.05 -0.00582106 -0.360827 0 
8 19.4723 25.149 20.05 -0.0296966 -0.337895 0 
9 18.7341 25.7446 20.05 0.0685258 -0.317012 0 
10 18.9033 26.9452 20.05 0.48505 0.013817 0 
11 17.9306 27.3391 20.05 0.443682 -0.266763 0 
12 17.5735 28.1714 20.05 -0.496234 -0.0905021 0 
13 16.6261 28.644 20.05 -0.349682 0.156813 0 
14 17.1636 29.4708 20.05 -0.0865602 -0.435495 0 
15 17.1513 30.3907 20.05 -0.126045 0.246158 0 
16 18.0005 30.1679 20.05 -0.176002 -0.193895 0 
17 18.2461 29.0312 20.05 0.474166 -0.413872 0 
18 19.2111 28.9717 20.05 0.0675521 0.127371 0 
19 19.4543 28.1198 20.05 -0.154907 -0.386464 0 
20 20.0253 29.006 20.05 -0.0671406 -0.299182 0 
21 20.8418 29.3059 20.05 0.112813 -0.198153 0 
22 20.516 30.5417 20.05 -0.0484586 0.309755 0 
23 21.3757 30.6215 20.05 0.136093 0.117974 0 
24 21.1829 31.4757 20.05 0.24966 0.314233 0 
25 20.6823 32.5168 20.05 -0.0515834 0.343452 0 
26 20.2995 33.3083 20.05 -0.0665912 0.10627 0 
27 19.4369 33.2495 20.05 -0.371487 0.0150834 0 
28 19.8771 34.1971 20.05 -0.117342 0.0784917 0 
29 19.2394 34.7754 20.05 -0.421458 -0.103482 0 
30 20.6716 35.0233 20.05 0.438041 0.398205 0 
31 21.6465 34.8114 20.05 0.460206 0.00740758 0 
32 22.2402 34.0567 20.05 -0.0675304 -0.152865 0 
33 23.0076 33.6444 20.05 0.487853 0.398636 0 
34 21.8644 33.1057 20.05 -0.0206194 0.28053 0 
35 22.5457 32.5424 20.05 -0.310219 -0.215845 0 
36 21.6544 32.1252 20.05 -0.17548 -0.190802 0 
37 22.813 31.6664 20.05 0.0367121 0.267199 0 
38 23.414 31.1078 20.05 -0.131602 0.161605 0 
39 23.9226 30.3493 20.05 0.0526536 -0.176846 0 
40 23.5422 29.1615 20.05 0.0539487 -0.346071 0 
41 22.699 28.7182 20.05 -0.195334 0.0791377 0 
42 22.916 27.831 20.05 0.0424682 0.270165 0 
43 23.9464 27.9988 20.05 -0.103488 0.0187839 0 
44 24.3471 28.7776 20.05 0.0561243 0.377843 0 
45 24.9685 27.724 20.05 0.267781 0.0723582 0 
46 25.7275 27.3062 20.05 0.395705 -0.473375 0 
47 26.7809 27.7395 20.05 -0.132476 -0.0731735 0 
48 27.6464 27.9821 20.05 0.373619 0.201644 0 
49 28.0807 28.7447 20.05 0.357523 -0.233421 0 
ITEM: TIMESTEP 
750
ITEM: NUMBER OF ATOMS
50
ITEM: BOX BOUNDS pp pp pp
0	40.1
0	40.1
0	40.1
ITEM: ATOMS id x y z vx vy vz
0 19.9778 20.0051 20.05 -0.298473 -0.127497 0 
1 20.8537 20.4019 20.05 -0.0287422 0.300785 0 
2 21.6063 21.0481 20.05 -0.414259 0.423221 0 
3 21.7807 21.9972 20.05 0.153362 0.46607 0 
4 20.552 22.1657 20.05 -0.275521 -0.0710765 0 
5 19.8022 22.9528 20.05 -0.147086 0.232489 0 
6 18.9058 23.1023 20.05 -0.342243 -0.316145 0 
7 19.2365 24.075 20.05 -0.00653779 -0.362522 0 
8 19.4661 25.063 20.05 -0.0194994 -0.350101 0 
9 18.7511 25.6739 20.05 0.0689484 -0.244805 0 
10 19.022 26.9417 20.05 0.464101 -0.0457674 0 
11 18.0434 27.2707 20.05 0.45505 -0.274828 0 
12 17.4473 28.1509 20.05 -0.510177 -0.0794263 0 
13 16.5395 28.6814 20.05 -0.345907 0.139574 0 
14 17.1428 29.3623 20.05 -0.0782746 -0.423062 0 
15 17.1087 30.4562 20.05 -0.187832 0.263048 0 
16 17.9691 30.1104 20.05 -0.100581 -0.261356 0 
17 18.3419 28.9326 20.05 0.0203031 -0.390525 0 
18 19.1509 29.0057 20.05 0.00573262 0.161525 0 
19 19.4176 28.0221 20.05 -0.138627 -0.384317 0 
20 20.0816 28.9222 20.05 0.242358 -0.379317 0 
21 20.8904 29.2748 20.05 0.266381 -0.0473041 0 
22 20.4884 30.608 20.05 -0.119531 0.220888 0 
23 21.4347 30.6261 20.05 0.300414 -0.117706 0 
24 21.1304 31.4397 20.05 -0.387616 -0.155586 0 
25 20.6849 32.571 20.05 0.067361 0.0997068 0 
26 20.2829 33.3625 20.05 -0.0989607 0.312073 0 
27 19.3316 33.2539 20.05 -0.431318 0.0245607 0 
28 19.8647 34.1995 20.05 -0.0296047 -0.0185326 0 
29 19.1326 34.7681 20.05 -0.377899 0.00645884 0 
30 20.7651 35.1197 20.05 0.303204 0.369656 0 
31 21.7602 34.8148 20.05 0.447345 0.0219553 0 
32 22.2146 34.0218 20.05 -0.109584 -0.141909 0 
33 23.1306 33.7353 20.05 0.464653 0.340711 0 
34 21.8624 33.1846 20.05 0.0212364 0.343753 0 
35 22.4689 32.5238 20.05 -0.234722 0.37953 0 
36 21.714 32.2174 20.05 0.177395 0.447776 0 
37 22.7714 31.754 20.05 -0.106474 0.0398032 0 
38 23.4378 31.0952 20.05 0.153925 -0.104749 0 
39 23.9346 30.2956 20.05 0.0419472 -0.253038 0 
40 23.5393 29.0909 20.05 -0.0977809 -0.214871 0 
41 22.648 28.7406 20.05 -0.215343 0.10838 0 
42 22.9284 27.8954 20.05 0.0572274 0.23708 0 
43 23.9168 27.9977 20.05 -0.123363 -0.0112533 0 
44 24.388 28.8633 20.05 0.285281 0.287131 0 
45 25.0224 27.754 20.05 0.190976 0.153498 0 
46 25.8387 27.1841 20.05 0.461386 -0.488783 0 
47 26.743 27.7193 20.05 -0.163186 -0.0861212 0 
48 27.7168 27.9917 20.05 0.182406 -0.125036 0 
49 28.1949 28.7277 20.05 0.55815 0.0959599 0 
ITEM: TIMESTEP 
1000
ITEM: NUMBER OF ATOMS
50
ITEM: BOX BOUNDS pp pp pp
0	40.1
0	40.1
0	40.1
ITEM: ATOMS id x y z vx vy vz
0 19.9031 19.9732 20.05 -0.295134 -0.125684 0 
1 20.846 20.4766 20.05 -0.0380593 0.293229 0 
2 21.5032 21.1538 20.05 -0.409015 0.425581 0 
3 21.8108 22.1152 20.05 0.0837729 0.474876 0 
4 20.4894 22.1494 20.05 -0.222417 -0.0571192 0 
5 19.77 23.0084 20.05 -0.111858 0.211361 0 
6 18.8181 23.0245 20.05 -0.35696 -0.305962 0 
7 19.2346 23.9839 20.05 -0.00897041 -0.367241 0 
8 19.4625 24.9739 20.05 -0.00985249 -0.363176 0 
9 18.7693 25.6236 20.05 0.0780664 -0.156565 0 
10 19.135 26.9209 20.05 0.438411 -0.122751 0 
11 18.1556 27.2047 20.05 0.436923 -0.246951 0 
12 17.3208 28.1288 20.05 -0.496308 -0.102736 0 
13 16.4481 28.7095 20.05 -0.408745 0.0661182 0 
14 17.1293 29.2672 20.05 -0.00704403 -0.311978 0 
15 17.0605 30.5178 20.05 -0.193618 0.222381 0 
16 17.9475 30.0373 20.05 -0.0756692 -0.323208 0 
17 18.2623 28.8327 20.05 -0.40011 -0.380546 0 
18 19.2352 29.0539 20.05 0.412455 0.191255 0 
19 19.3852 27.9311 20.05 -0.120014 -0.337643 0 
20 20.1335 28.8212 20.05 0.185392 -0.423602 0 
21 20.9591 29.2782 20.05 0.267304 0.0711163 0 
22 20.462 30.6508 20.05 -0.0854545 0.118607 0 
23 21.5152 30.585 20.05 0.325368 -0.17723 0 
24 21.0264 31.4189 20.05 -0.42978 -0.0447443 0 
25 20.7057 32.5862 20.05 0.0948825 0.0282087 0 
26 20.2589 33.44 20.05 -0.0632521 0.243378 0 
27 19.225 33.2627 20.05 -0.416681 0.0470754 0 
28 19.8549 34.1952 20.05 -0.082332 0.0419303 0 
29 19.0589 34.7757 20.05 -0.20353 0.0546872 0 
30 20.8207 35.2065 20.05 0.138683 0.321356 0 
31 21.8684 34.8245 20.05 0.406708 0.0786383 0 
32 22.2033 34.0161 20.05 0.10108 0.227433 0 
33 23.235 33.8153 20.05 0.362644 0.299442 0 
34 21.8534 33.2544 20.05 -0.184013 0.0819153 0 
35 22.5236 32.6929 20.05 0.427683 0.694453 0 
36 21.647 32.2783 20.05 -0.390782 0.170177 0 
37 22.7534 31.7298 20.05 -0.0887492 -0.107233 0 
38 23.4765 31.0693 20.05 0.155241 -0.101576 0 
39 23.9432 30.2231 20.05 0.0265155 -0.325378 0 
40 23.515 29.0465 20.05 -0.0833859 -0.145178 0 
41 22.5901 28.7752 20.05 -0.244786 0.158365 0 
42 22.9448 27.9467 20.05 0.0690451 0.183208 0 
43 23.887 27.9956 20.05 -0.110048 -0.00172409 0 
44 24.4671 28.9259 20.05 0.330471 0.212642 0 
45 25.0671 27.7991 20.05 0.171413 0.203535 0 
46 25.9535 27.0632 20.05 0.450055 -0.475777 0 
47 26.7026 27.6976 20.05 -0.154101 -0.084805 0 
48 27.7581 27.9554 20.05 0.153802 -0.153006 0 
49 28.3376 28.7564 20.05 0.574753 0.120843 0 
ITEM: TIMESTEP 
1250
ITEM: NUMBER OF ATOMS
50
ITEM: BOX BOUNDS pp pp pp
0	40.1
0	40.1
0	40.1
ITEM: ATOMS id x y z vx vy vz
0 19.8321 19.9433 20.05 -0.269161 -0.110773 0 
1 20.8322 20.5467 20.05 -0.0760078 0.264633 0 
2 21.4027 21.2625 20.05 -0.393975 0.447119 0 
3 21.8207 22.2331 20.05 -0.00780015 0.464904 0 
4 20.442 22.1384 20.05 -0.155216 -0.0281187 0 
5 19.7454 23.058 20.05 -0.0869251 0.18447 0 
6 18.7288 22.9495 20.05 -0.354402 -0.293245 0 
7 19.2318 23.891 20.05 -0.0142373 -0.37597 0 
8 19.4609 24.8817 20.05 -0.00419875 -0.373647 0 
9 18.7911 25.5959 20.05 0.0984177 -0.0648741 0 
10 19.2408 26.8797 20.05 0.407206 -0.206751 0 
11 18.2587 27.1497 20.05 0.381645 -0.18961 0 
12 17.202 28.0972 20.05 -0.447866 -0.153543 0 
13 16.3396 28.7192 20.05 -0.441078 0.0258261 0 
14 17.1345 29.2042 20.05 0.0307303 -0.201517 0 
15 17.0138 30.5636 20.05 -0.176201 0.137143 0 
16 17.9293 29.9498 20.05 -0.0742347 -0.373832 0 
17 18.1628 28.7454 20.05 -0.386229 -0.31503 0 
18 19.3365 29.0959 20.05 0.388537 0.136872 0 
19 19.3583 27.856 20.05 -0.0939525 -0.258267 0 
20 20.1755 28.7108 20.05 0.153477 -0.4576 0 
21 21.0215 29.3101 20.05 0.227014 0.182142 0 
22 20.4485 30.6663 20.05 -0.0228467 -0.00383698 0 
23 21.5935 30.5412 20.05 0.294098 -0.168128 0 
24 20.9179 31.4138 20.05 -0.428731 0.00781501 0 
25 20.7308 32.5866 20.05 0.084654 -0.0168815 0 
26 20.2618 33.4616 20.05 0.0425586 0.00241966 0 
27 19.1259 33.2786 20.05 -0.370281 0.0824711 0 
28 19.8107 34.2411 20.05 -0.232118 0.248069 0 
29 19.0331 34.7961 20.05 -0.00278874 0.110513 0 
30 20.8341 35.2789 20.05 -0.0307107 0.255601 0 
31 21.9499 34.8863 20.05 0.244573 0.413534 0 
32 22.262 34.0645 20.05 0.318124 0.0604798 0 
33 23.3081 33.8841 20.05 0.215658 0.248591 0 
34 21.7968 33.257 20.05 -0.188568 0.021999 0 
35 22.64 32.8575 20.05 0.468292 0.640371 0 
36 21.5586 32.3177 20.05 -0.285669 0.14107 0 
37 22.7237 31.7068 20.05 -0.14994 -0.0762249 0 
38 23.5151 31.0444 20.05 0.152755 -0.0977947 0 
39 23.9475 30.1342 20.05 0.00759646 -0.382319 0 
40 23.4976 29.0174 20.05 -0.0569792 -0.0898656 0 
41 22.5269 28.8171 20.05 -0.259535 0.175724 0 
42 22.961 27.9899 20.05 0.058477 0.163805 0 
43 23.8639 27.9986 20.05 -0.0704472 0.0288345 0 
44 24.5514 28.9682 20.05 0.340636 0.124002 0 
45 25.1109 27.8532 20.05 0.184413 0.223274 0 
46 26.0605 26.9478 20.05 0.400251 -0.443644 0 
47 26.6681 27.6779 20.05 -0.118365 -0.0714316 0 
48 27.7938 27.917 20.05 0.131927 -0.150113 0 
49 28.4808 28.7859 20.05 0.567421 0.111334 0 
ITEM: TIMESTEP 
1500
ITEM: NUMBER OF ATOMS
50
ITEM: BOX BOUNDS pp pp pp
0	40.1
0	40.1
0	40.1
ITEM: ATOMS id x y z vx vy vz
0 19.77 19.9189 20.05 -0.225166 -0.0827871 0 
1 20.8064 20.6075 20.05 -0.132542 0.219235 0 
2 21.3067 21.3784 20.05 -0.373383 0.481375 0 
3 21.8056 22.3462 20.05 -0.114876 0.437082 0 
4 20.4124 22.1367 20.05 -0.0811071 0.0169114 0 
5 19.7261 23.0985 20.05 -0.0455395 0.102165 0 
6 18.6429 22.8784 20.05 -0.328934 -0.273832 0 
7 19.2263 23.7968 20.05 -0.0551802 -0.342853 0 
8 19.4599 24.7876 20.05 -0.00539788 -0.377569 0 
9 18.8194 25.5902 20.05 0.130048 0.0163296 0 
10 19.338 26.8179 20.05 0.369584 -0.286555 0 
11 18.3436 27.1115 20.05 0.292502 -0.113393 0 
12 17.0994 28.0507 20.05 -0.368422 -0.219601 0 
13 16.2301 28.7237 20.05 -0.431506 0.0103015 0 
14 17.1421 29.1667 20.05 0.0266485 -0.098368 0 
15 16.9743 30.5834 20.05 -0.136379 0.0160386 0 
16 17.9085 29.8521 20.05 -0.0950908 -0.403752 0 
17 18.0738 28.6761 20.05 -0.316803 -0.238793 0 
18 19.4248 29.1189 20.05 0.308546 0.0415672 0 
19 19.3389 27.8039 20.05 -0.0594089 -0.155974 0 
20 20.2117 28.5938 20.05 0.139186 -0.474367 0 
21 21.0706 29.3673 20.05 0.162199 0.269354 0 
22 20.4435 30.633 20.05 -0.00820715 -0.253214 0 
23 21.6585 30.5035 20.05 0.218313 -0.128985 0 
24 20.8237 31.4363 20.05 -0.326354 0.159261 0 
25 20.704 32.5921 20.05 -0.266724 0.0503551 0 
26 20.2667 33.4616 20.05 -0.00708793 -0.00185573 0 
27 19.0425 33.305 20.05 -0.292564 0.130691 0 
28 19.7511 34.2967 20.05 -0.232027 0.184657 0 
29 19.0562 34.8323 20.05 0.172474 0.189507 0 
30 20.8065 35.3337 20.05 -0.185168 0.182787 0 
31 22.0031 34.9968 20.05 0.183881 0.456958 0 
32 22.3449 34.0742 20.05 0.337633 0.0315491 0 
33 23.3413 33.9385 20.05 0.0497758 0.18426 0 
34 21.7678 33.271 20.05 -0.0375759 0.0901649 0 
35 22.7506 33.0132 20.05 0.407183 0.602671 0 
36 21.5524 32.3366 20.05 0.209335 0.0249088 0 
37 22.6786 31.6914 20.05 -0.207192 -0.0482406 0 
38 23.5523 31.0203 20.05 0.143282 -0.0954413 0 
39 23.9469 30.0341 20.05 -0.0122619 -0.413532 0 
40 23.4854 29.0001 20.05 -0.0432889 -0.0512183 0 
41 22.4613 28.8625 20.05 -0.262227 0.185927 0 
42 22.9699 28.0294 20.05 -0.00455647 0.154721 0 
43 23.8568 28.0111 20.05 0.0315694 0.0724399 0 
44 24.6358 28.9874 20.05 0.332061 0.029191 0 
45 25.1618 27.9076 20.05 0.226995 0.205129 0 
46 26.1516 26.8436 20.05 0.325572 -0.385148 0 
47 26.6447 27.6623 20.05 -0.0678236 -0.0526913 0 
48 27.8245 27.882 20.05 0.115003 -0.126761 0 
49 28.6197 28.8102 20.05 0.541 0.079393 0 
ITEM: TIMESTEP 
1750
ITEM: NUMBER OF ATOMS
50
ITEM: BOX BOUNDS pp pp pp
0	40.1
0	40.1
0	40.1
ITEM: ATOMS id x y z vx vy vz
0 19.7205 19.9028 20.05 -0.169885 -0.0444568 0 
1 20.7654 20.6558 20.05 -0.195941 0.167223 0 
2 21.2159 21.5032 20.05 -0.353978 0.515638 0 
3 21.763 22.4507 20.05 -0.225785 0.39789 0 
4 20.4015 22.1475 20.05 -0.00540811 0.06936 0 
5 19.7496 23.0709 20.05 0.18113 -0.255151 0 
6 18.5665 22.8135 20.05 -0.276742 -0.243752 0 
7 19.1749 23.7566 20.05 -0.309969 -0.0486593 0 
8 19.4576 24.694 20.05 -0.0138312 -0.366793 0 
9 18.8568 25.6021 20.05 0.170032 0.0737714 0 
10 19.4249 26.7377 20.05 0.324324 -0.351191 0 
11 18.4031 27.0935 20.05 0.181439 -0.0309344 0 
12 17.0195 27.9873 20.05 -0.268568 -0.286579 0 
13 16.1263 28.7245 20.05 -0.392943 -0.00346638 0 
14 17.1458 29.1549 20.05 -0.00112818 0.00287654 0 
15 16.947 30.5699 20.05 -0.0806587 -0.126089 0 
16 17.8804 29.75 20.05 -0.131846 -0.408786 0 
17 18.008 28.6263 20.05 -0.204152 -0.160051 0 
18 19.487 29.1143 20.05 0.183002 -0.081031 0 
19 19.329 27.7787 20.05 -0.0196147 -0.0457023 0 
20 20.2469 28.4762 20.05 0.146074 -0.461363 0 
21 21.1012 29.4407 20.05 0.0815112 0.308085 0 
22 20.4538 30.5578 20.05 0.0917514 -0.340201 0 
23 21.6995 30.4787 20.05 0.10452 -0.065575 0 
24 20.7483 31.4748 20.05 -0.274255 0.140924 0 
25 20.6375 32.5991 20.05 -0.261746 0.0050095 0 
26 20.2566 33.4613 20.05 -0.0765551 0.000972247 0 
27 18.9813 33.3442 20.05 -0.195019 0.182505 0 
28 19.7227 34.3094 20.05 0.004591 -0.0889444 0 
29 19.0893 34.9143 20.05 0.0884842 0.471386 0 
30 20.7447 35.3705 20.05 -0.302168 0.113493 0 
31 22.0412 35.1125 20.05 0.119177 0.463503 0 
32 22.4283 34.0828 20.05 0.324428 0.0424753 0 
33 23.334 33.9757 20.05 -0.10354 0.11326 0 
34 21.78 33.3021 20.05 0.136842 0.157903 0 
35 22.8403 33.1575 20.05 0.305425 0.549133 0 
36 21.6237 32.3449 20.05 0.356419 0.0468212 0 
37 22.6228 31.6813 20.05 -0.232294 -0.0364431 0 
38 23.5858 30.9964 20.05 0.122742 -0.0963489 0 
39 23.9416 29.9301 20.05 -0.0298277 -0.412366 0 
40 23.4744 28.9901 20.05 -0.0477719 -0.0319551 0 
41 22.3971 28.9094 20.05 -0.248728 0.188397 0 
42 22.9618 28.068 20.05 -0.0475359 0.154843 0 
43 23.877 28.0353 20.05 0.117165 0.121164 0 
44 24.7162 28.9833 20.05 0.309329 -0.0600955 0 
45 25.2262 27.9526 20.05 0.291623 0.14904 0 
46 26.2222 26.7577 20.05 0.238041 -0.296512 0 
47 26.6348 27.6513 20.05 -0.0103937 -0.0364031 0 
48 27.852 27.8552 20.05 0.106741 -0.0852534 0 
49 28.7497 28.824 20.05 0.495492 0.0284311 0 
ITEM: TIMESTEP 
2000
ITEM: NUMBER OF ATOMS
50
ITEM: BOX BOUNDS pp pp pp
0	40.1
0	40.1
0	40.1
ITEM: ATOMS id x y z vx vy vz
0 19.6854 19.8971 20.05 -0.110891 -0.000313007 0 
1 20.7088 20.6916 20.05 -0.255691 0.121766 0 
2 21.1291 21.635 20.05 -0.342321 0.535098 0 
3 21.6936 22.5449 20.05 -0.326162 0.356806 0 
4 20.4099 22.1702 20.05 0.0718306 0.109364 0 
5 19.7892 23.003 20.05 0.129541 -0.285426 0 
6 18.507 22.7576 20.05 -0.19483 -0.201823 0 
7 19.0948 23.7399 20.05 -0.331824 -0.0877169 0 
8 19.4527 24.6064 20.05 -0.0256629 -0.330123 0 
9 18.9046 25.6243 20.05 0.212535 0.0973953 0 
10 19.4994 26.6444 20.05 0.270143 -0.390554 0 
11 18.4339 27.0954 20.05 0.0655468 0.0441273 0 
12 16.9657 27.9085 20.05 -0.162571 -0.340567 0 
13 16.0364 28.7216 20.05 -0.321201 -0.0210108 0 
14 17.1373 29.165 20.05 -0.115859 0.0423206 0 
15 16.9345 30.5203 20.05 -0.0192856 -0.268988 0 
16 17.8445 29.6515 20.05 -0.110275 -0.343689 0 
17 17.9739 28.5953 20.05 -0.0659126 -0.0902838 0 
18 19.5141 29.0779 20.05 0.0310349 -0.209108 0 
19 19.3291 27.7803 20.05 0.0196385 0.0563102 0 
20 20.2864 28.3662 20.05 0.172546 -0.411614 0 
21 21.1111 29.5162 20.05 -0.0014485 0.284765 0 
22 20.4882 30.4659 20.05 0.179587 -0.388019 0 
23 21.7091 30.4718 20.05 -0.0283129 0.01147 0 
24 20.6882 31.5046 20.05 -0.203901 0.0938796 0 
25 20.5732 32.5949 20.05 -0.252799 -0.0377205 0 
26 20.2278 33.4627 20.05 -0.153985 0.0104631 0 
27 18.9455 33.3956 20.05 -0.0920167 0.226191 0 
28 19.7249 34.2771 20.05 -0.000771153 -0.15438 0 
29 19.1268 35.0425 20.05 0.219415 0.538239 0 
30 20.6596 35.3917 20.05 -0.368937 0.0594107 0 
31 22.0617 35.2262 20.05 0.0423679 0.441514 0 
32 22.4799 34.1008 20.05 -0.0419619 0.120953 0 
33 23.3222 34.0013 20.05 0.205704 0.18908 0 
34 21.8357 33.3496 20.05 0.30543 0.221803 0 
35 22.8969 33.2775 20.05 0.0828796 0.296377 0 
36 21.7292 32.3623 20.05 0.48264 0.0966189 0 
37 22.566 31.6714 20.05 -0.21555 -0.0468603 0 
38 23.6125 30.9717 20.05 0.0884686 -0.102124 0 
39 23.9325 29.8307 20.05 -0.0421198 -0.377391 0 
40 23.4598 28.9826 20.05 -0.0722136 -0.0310485 0 
41 22.3383 28.956 20.05 -0.219021 0.183526 0 
42 22.9473 28.1074 20.05 -0.0667944 0.161473 0 
43 23.9139 28.0715 20.05 0.176391 0.167958 0 
44 24.7899 28.9584 20.05 0.279583 -0.135879 0 
45 25.3085 27.9796 20.05 0.367702 0.0628808 0 
46 26.2704 26.6975 20.05 0.147499 -0.181811 0 
47 26.6397 27.6436 20.05 0.050166 -0.0266947 0 
48 27.8787 27.8405 20.05 0.108599 -0.0304359 0 
49 28.866 28.8233 20.05 0.43307 -0.0362089 0 
ITEM: TIMESTEP 
2250
ITEM: NUMBER OF ATOMS
50
ITEM: BOX BOUNDS pp pp pp
0	40.1
0	40.1
0	40.1
ITEM: ATOMS id x y z vx vy vz
0 19.6647 19.9027 20.05 -0.0553381 0.0444367 0 
1 20.6385 20.7182 20.05 -0.303882 0.094255 0 
2 21.0869 21.7371 20.05 0.101365 0.207267 0 
3 21.6018 22.6297 20.05 -0.404342 0.323245 0 
4 20.3938 22.232 20.05 -0.298499 0.450531 0 
5 19.8117 22.9297 20.05 0.0443095 -0.297021 0 
6 18.4706 22.7129 20.05 -0.0944853 -0.156274 0 
7 19.0087 23.7121 20.05 -0.356998 -0.13457 0 
8 19.4447 24.5308 20.05 -0.0384126 -0.272042 0 
9 18.9626 25.6476 20.05 0.249897 0.082819 0 
10 19.5592 26.5452 20.05 0.206457 -0.396363 0 
11 18.437 27.1138 20.05 -0.0373082 0.0987585 0 
12 16.9376 27.819 20.05 -0.0645554 -0.370722 0 
13 15.9678 28.7132 20.05 -0.225012 -0.0492541 0 
14 17.0625 29.1588 20.05 -0.414358 -0.0492697 0 
15 16.9369 30.4369 20.05 0.0371688 -0.393839 0 
16 17.8501 29.5947 20.05 0.0882721 -0.155351 0 
17 17.9755 28.5797 20.05 0.0782466 -0.0367181 0 
18 19.5023 29.0113 20.05 -0.123832 -0.319083 0 
19 19.3384 27.8049 20.05 0.0532951 0.135895 0 
20 20.3343 28.2733 20.05 0.211813 -0.326638 0 
21 21.1015 29.5777 20.05 -0.0721665 0.197473 0 
22 20.5408 30.3671 20.05 0.23394 -0.39656 0 
23 21.6856 30.4847 20.05 -0.157432 0.0914725 0 
24 20.6471 31.5205 20.05 -0.124227 0.0319883 0 
25 20.5111 32.581 20.05 -0.24492 -0.0724894 0 
26 20.18 33.4668 20.05 -0.226355 0.0224874 0 
27 18.9343 33.456 20.05 -0.000350845 0.254526 0 
28 19.7213 34.2351 20.05 -0.0287366 -0.174966 0 
29 19.1974 35.1801 20.05 0.34055 0.556314 0 
30 20.5654 35.402 20.05 -0.373413 0.0268251 0 
31 22.0608 35.3314 20.05 -0.0527131 0.396913 0 
32 22.4404 34.1405 20.05 -0.190738 0.191033 0 
33 23.4074 34.0789 20.05 0.322939 0.32242 0 
34 21.9309 33.4129 20.05 0.450428 0.282733 0 
35 22.8808 33.3015 20.05 -0.132062 0.0165835 0 
36 21.8619 32.3943 20.05 0.571969 0.160218 0 
37 22.5183 31.6558 20.05 -0.160971 -0.0810076 0 
38 23.6289 30.9449 20.05 0.0409001 -0.113627 0 
39 23.9211 29.7439 20.05 -0.0475305 -0.312953 0 
40 23.4368 28.9734 20.05 -0.114283 -0.0442223 0 
41 22.2887 29.0006 20.05 -0.176536 0.172219 0 
42 22.9293 28.1491 20.05 -0.0751043 0.172759 0 
43 23.9636 28.1186 20.05 0.21688 0.206629 0 
44 24.8561 28.9167 20.05 0.250639 -0.195253 0 
45 25.41 27.9827 20.05 0.443094 -0.0385615 0 
46 26.2964 26.668 20.05 0.0629351 -0.0533944 0 
47 26.66 27.6375 20.05 0.111957 -0.022725 0 
48 27.9071 27.8405 20.05 0.119631 0.0309591 0 
49 28.9651 28.8054 20.05 0.357876 -0.107855 0 
ITEM: TIMESTEP 
2500
ITEM: NUMBER OF ATOMS
50
ITEM: BOX BOUNDS pp pp pp
0	40.1
0	40.1
0	40.1
ITEM: ATOMS id x y z vx vy vz
0 19.6569 19.919 20.05 -0.00888131 0.0849232 0 
1 20.5583 20.7404 20.05 -0.334098 0.0865834 0 
2 21.1228 21.777 20.05 0.140756 0.139156 0 
3 21.4928 22.7075 20.05 -0.464265 0.300899 0 
4 20.3638 22.3012 20.05 0.213891 -0.0451427 0 
5 19.7625 22.9083 20.05 -0.551375 0.242524 0 
6 18.4599 22.679 20.05 0.00621395 -0.116424 0 
7 18.9166 23.6732 20.05 -0.378138 -0.174325 0 
8 19.4334 24.4713 20.05 -0.0517784 -0.202513 0 
9 19.0285 25.6627 20.05 0.274825 0.0321862 0 
10 19.6019 26.4494 20.05 0.133954 -0.363729 0 
11 18.4175 27.1423 20.05 -0.112734 0.123203 0 
12 16.9318 27.7256 20.05 0.0144434 -0.371305 0 
13 15.9242 28.6954 20.05 -0.123693 -0.0958443 0 
14 16.9536 29.1523 20.05 -0.453525 -0.00678263 0 
15 16.9521 30.3259 20.05 0.0817477 -0.487917 0 
16 17.8669 29.5602 20.05 0.0472024 -0.121005 0 
17 18.0119 28.5755 20.05 0.208648 -0.000241935 0 
18 19.4538 28.9216 20.05 -0.259041 -0.391084 0 
19 19.3552 27.8455 20.05 0.0803797 0.182697 0 
20 20.3925 28.2051 20.05 0.253272 -0.216297 0 
21 21.0827 29.6024 20.05 0.00874775 -0.122651 0 
22 20.5957 30.2785 20.05 0.115332 -0.19181 0 
23 21.6324 30.5171 20.05 -0.263207 0.166511 0 
24 20.6259 31.5204 20.05 -0.0469418 -0.0322527 0 
25 20.4506 32.5595 20.05 -0.238698 -0.0984014 0 
26 20.1262 33.4561 20.05 -0.176976 -0.150922 0 
27 18.9431 33.5213 20.05 0.065296 0.264879 0 
28 19.7003 34.2107 20.05 -0.161421 0.0296356 0 
29 19.294 35.3173 20.05 0.425229 0.534694 0 
30 20.4784 35.4069 20.05 -0.312151 0.0156753 0 
31 22.0338 35.4233 20.05 -0.165951 0.337527 0 
32 22.4125 34.2322 20.05 -0.00699043 0.593146 0 
33 23.4706 34.1516 20.05 0.179993 0.259031 0 
34 22.0276 33.4572 20.05 0.178057 0.0443638 0 
35 22.8519 33.2971 20.05 0.0292643 -0.0706518 0 
36 22.0114 32.4418 20.05 0.61732 0.216976 0 
37 22.4874 31.6292 20.05 -0.0839376 -0.13424 0 
38 23.6322 30.9145 20.05 -0.0159671 -0.130521 0 
39 23.9109 29.6784 20.05 -0.0212401 -0.191364 0 
40 23.4001 28.9574 20.05 -0.193111 -0.102139 0 
41 22.2506 29.0418 20.05 -0.127539 0.15628 0 
42 22.9111 28.194 20.05 -0.0679664 0.18646 0 
43 24.0201 28.1738 20.05 0.230462 0.233404 0 
44 24.916 28.8621 20.05 0.230599 -0.239723 0 
45 25.529 27.9606 20.05 0.50555 -0.13639 0 
46 26.303 26.6705 20.05 -0.00755184 0.0714806 0 
47 26.6957 27.6321 20.05 0.173584 -0.0205799 0 
48 27.9391 27.8559 20.05 0.136801 0.0913715 0 
49 29.0444 28.7694 20.05 0.275611 -0.179352 0 
ITEM: TIMESTEP 
2750
ITEM: NUMBER OF ATOMS
50
ITEM: BOX BOUNDS pp pp pp
0	40.1
0	40.1
0	40.1
ITEM: ATOMS id x y z vx vy vz
0 19.6592 19.9445 20.05 0.0250884 0.117305 0 
1 20.4735 20.7632 20.05 -0.340537 0.0999816 0 
2 21.1565 21.8051 20.05 0.154233 0.0654612 0 
3 21.3723 22.781 20.05 -0.494589 0.288621 0 
4 20.4279 22.285 20.05 0.236682 -0.0383356 0 
5 19.6083 22.975 20.05 -0.64689 0.262162 0 
6 18.4709 22.6538 20.05 0.0745158 -0.0877184 0 
7 18.8206 23.6266 20.05 -0.388035 -0.194616 0 
8 19.4186 24.4295 20.05 -0.067301 -0.132991 0 
9 19.0985 25.6612 20.05 0.276234 -0.0557874 0 
10 19.6257 26.3667 20.05 0.0608161 -0.283627 0 
11 18.3836 27.1726 20.05 -0.152707 0.113623 0 
12 16.9427 27.6358 20.05 0.0682385 -0.342646 0 
13 15.9057 28.6636 20.05 -0.0262048 -0.161546 0 
14 16.8374 29.1534 20.05 -0.472535 0.0116437 0 
15 16.9765 30.1965 20.05 0.110944 -0.540288 0 
16 17.8745 29.5337 20.05 0.0159231 -0.0930926 0 
17 18.0773 28.578 20.05 0.308474 0.017493 0 
18 19.3758 28.8199 20.05 -0.358543 -0.413401 0 
19 19.3784 27.8931 20.05 0.105946 0.191054 0 
20 20.4602 28.1653 20.05 0.286336 -0.104167 0 
21 21.1168 29.5013 20.05 0.159315 -0.53535 0 
22 20.5865 30.2861 20.05 -0.0849246 0.103532 0 
23 21.5566 30.5671 20.05 -0.338321 0.23081 0 
24 20.6225 31.5052 20.05 0.0170917 -0.0860365 0 
25 20.3918 32.5317 20.05 -0.231304 -0.124905 0 
26 20.0827 33.4087 20.05 -0.189811 -0.189633 0 
27 18.9645 33.587 20.05 0.101868 0.258117 0 
28 19.6517 34.2359 20.05 -0.203994 0.138782 0 
29 19.406 35.4452 20.05 0.46299 0.485751 0 
30 20.4141 35.4111 20.05 -0.19477 0.0196111 0 
31 21.977 35.5004 20.05 -0.288913 0.280558 0 
32 22.4141 34.3939 20.05 0.00958621 0.672634 0 
33 23.496 34.2082 20.05 0.02002 0.193095 0 
34 22.0237 33.4826 20.05 -0.0443515 0.154727 0 
35 22.9182 33.2633 20.05 0.353855 -0.166119 0 
36 22.1683 32.5011 20.05 0.634716 0.252628 0 
37 22.4765 31.5883 20.05 -0.00389702 -0.192516 0 
38 23.6207 30.8794 20.05 -0.0754938 -0.149812 0 
39 23.9094 29.6466 20.05 -0.00167911 -0.0788939 0 
40 23.3517 28.9401 20.05 -0.127981 0.0628131 0 
41 22.2247 29.0786 20.05 -0.08009 0.137765 0 
42 22.8867 28.2268 20.05 -0.178209 -0.00721335 0 
43 24.0762 28.2342 20.05 0.212757 0.247267 0 
44 24.9727 28.7977 20.05 0.226587 -0.273949 0 
45 25.6608 27.9164 20.05 0.5445 -0.211732 0 
46 26.2943 26.702 20.05 -0.0580964 0.175484 0 
47 26.7467 27.6274 20.05 0.233895 -0.0161806 0 
48 27.9756 27.8855 20.05 0.155628 0.143671 0 
49 29.1029 28.7162 20.05 0.192939 -0.244033 0 
ITEM: TIMESTEP 
3000
ITEM: NUMBER OF ATOMS
50
ITEM: BOX BOUNDS pp pp pp
0	40.1
0	40.1
0	40.1
ITEM: ATOMS id x y z vx vy vz
0 19.6684 19.9768 20.05 0.0459176 0.139352 0 
1 20.3902 20.792 20.05 -0.320916 0.133269 0 