ITEM: TIMESTEP 
0
ITEM: NUMBER OF ATOMS
50
ITEM: BOX BOUNDS pp pp pp
0	100
0	100
0	100
ITEM: ATOMS id x y z vx vy vz
0 25 50 50 -0.0114423 -0.0370943 0.0347951 
1 26 50 50 -0.489164 0.23774 -0.240772 
2 27 50 50 0.245997 -0.534378 0.299711 
3 28 50 50 -0.119432 -0.490493 -0.320822 
4 29 50 50 -0.35354 -0.315377 -0.322683 
5 30 50 50 -0.2441 -0.478316 -0.261219 
6 31 50 50 0.147147 0.240975 -0.456904 
7 32 50 50 0.424286 0.109105 0.030141 
8 33 50 50 -0.380762 0.265634 -0.292073 
9 34 50 50 -0.470914 0.0505701 0.27667 
10 35 50 50 0.150107 0.411451 0.405671 
11 36 50 50 -0.0214982 0.229866 -0.309591 
12 37 50 50 0.451386 -0.312356 -0.385704 
13 38 50 50 -0.490751 0.361676 -0.460108 
14 39 50 50 -0.0825352 -0.0013419 0.294614 
15 40 50 50 0.404815 -0.463301 0.416933 
16 41 50 50 0.117849 -0.211096 0.0923988 
17 42 50 50 0.477479 0.00576891 -0.306173 
18 43 50 50 -0.000348827 -0.287972 0.49918 
19 44 50 50 0.0831803 -0.353037 -0.414392 
20 45 50 50 0.306728 -0.442456 0.521062 
21 46 50 50 -0.23293 0.0721467 -0.297323 
22 47 50 50 0.308132 -0.0952474 0.197596 
23 48 50 50 0.265437 -0.0546577 0.122063 
24 49 50 50 -0.497587 0.256417 0.462741 
25 50 50 50 0.137717 0.441695 -0.0552193 
26 51 50 50 0.144828 -0.140232 0.474246 
27 52 50 50 0.399291 -0.513534 0.168329 
28 53 50 50 -0.139696 0.175055 0.282773 
29 54 50 50 0.291622 0.112492 -0.389122 
30 55 50 50 -0.11754 0.124608 0.189875 
31 56 50 50 -0.107957 -0.420544 -0.295034 
32 57 50 50 0.2156 -0.022888 -0.0181393 
33 58 50 50 -0.248403 0.441512 0.354339 
34 59 50 50 -0.111436 0.113743 0.0496423 
35 60 50 50 0.28213 0.147497 -0.153245 
36 61 50 50 0.0711866 0.112401 -0.164903 
37 62 50 50 0.318905 -0.354288 0.162134 
38 63 50 50 -0.212452 -0.302468 -0.288289 
39 64 50 50 0.28796 0.45668 0.031026 
40 65 50 50 -0.0924537 0.262033 -0.0685864 
41 66 50 50 -0.170306 0.407301 -0.0846696 
42 67 50 50 -0.345422 -0.0041496 0.28079 
43 68 50 50 -0.297752 0.307994 -0.182634 
44 69 50 50 -0.341302 0.285654 0.207118 
45 70 50 50 0.429779 -0.0746779 -0.392327 
46 71 50 50 0.234522 0.0957985 0.0302326 
47 72 50 50 -0.398982 0.285532 0.517369 
48 73 50 50 -0.302116 -0.360819 0.0673431 
49 74 50 50 0.0847368 0.259378 -0.308859 
ITEM: TIMESTEP 
250
ITEM: NUMBER OF ATOMS
50
ITEM: BOX BOUNDS pp pp pp
0	100
0	100
0	100
ITEM: ATOMS id x y z vx vy vz
0 24.9793 49.9914 50.008 0.20062 -0.0189897 0.0163431 
1 25.9767 50.0564 49.9421 -0.405549 0.22594 -0.226805 
2 26.9583 49.8688 50.0728 0.0289496 -0.539557 0.278805 
3 27.9556 49.8771 49.9202 -0.113594 -0.481864 -0.295465 
4 28.9899 49.9207 49.9196 -0.04039 -0.333556 -0.319413 
5 29.997 49.887 49.9329 -0.0826156 -0.442175 -0.271937 
6 30.9638 50.0543 49.8878 -0.283087 0.212582 -0.446869 
7 31.9673 50.0265 50.009 0.00864237 0.116198 0.0143675 
8 32.9956 50.0677 49.9242 -0.131931 0.256788 -0.271899 
9 34.0027 50.0146 50.0709 0.0788854 0.0630866 0.27363 
10 34.9951 50.099 50.0946 0.232348 0.385674 0.33877 
11 35.969 50.0587 49.9285 -0.343202 0.226203 -0.250183 
12 37.0019 49.9218 49.9037 0.28902 -0.222435 -0.388571 
13 38.0207 50.089 49.8884 -0.108772 0.269159 -0.409803 
14 39.0243 49.9972 50.0712 0.174139 -0.0143397 0.260365 
15 40.0226 49.89 50.1009 0.250076 -0.400897 0.370621 
16 41.0278 49.9458 50.0249 -0.225252 -0.23114 0.115589 
17 42.0546 50.0012 49.924 0.300114 -0.017773 -0.248564 
18 43.0484 49.928 50.1238 0.0589043 -0.273214 0.435797 
19 44.038 49.9116 49.8991 0.200379 -0.354522 -0.364475 
20 45.0314 49.8913 50.1257 0.337767 -0.395889 0.421563 
21 46.0092 50.0162 49.9288 -0.426935 0.0335235 -0.243492 
22 47.0021 49.9763 50.0491 0.0784559 -0.100747 0.213575 
23 48.0128 49.9858 50.0296 0.347608 -0.0348986 0.141501 
24 49.0253 50.0654 50.1146 -0.0746871 0.240284 0.43355 
25 50.0317 50.105 49.9923 0.354458 0.396468 -0.00865944 
26 51.0042 49.9684 50.1133 -0.00567714 -0.124365 0.416709 
27 52.0239 49.8732 50.0432 0.0256651 -0.451936 0.193928 
28 53.0191 50.0437 50.072 -0.260253 0.142006 0.299654 
29 54.0206 50.028 49.9009 0.287267 0.110313 -0.400836 
30 55.0103 50.031 50.0478 -0.015776 0.121864 0.176636 
31 55.9959 49.8951 49.9264 -0.0845291 -0.422969 -0.296209 
32 56.9972 49.9947 49.9958 0.315703 0.0138088 0.0107164 
33 58.0017 50.1088 50.0872 -0.0656255 0.393259 0.313407 
34 59.0105 50.0297 50.0123 -0.00123749 0.131538 0.0571497 
35 60.0126 50.0366 49.9627 0.129984 0.144165 -0.14611 
36 61.0138 50.0284 49.9587 -0.122289 0.107137 -0.158943 
37 62.0276 49.9112 50.041 0.126421 -0.345826 0.148171 
38 63.0161 49.9231 49.9271 -0.243963 -0.3487 -0.298655 
39 63.9919 50.1163 50.0087 0.00409867 0.5115 0.0551879 
40 64.9726 50.0637 49.9826 -0.180695 0.242127 -0.0723182 
41 65.9749 50.1044 49.9773 0.0320303 0.431216 -0.0980459 
42 66.969 49.9981 50.0706 0.230819 -0.000486377 0.267731 
43 67.9799 50.076 49.9589 0.167311 0.287131 -0.115398 
44 68.9761 50.0685 50.043 -0.369527 0.272041 0.136618 
45 69.9624 49.9846 49.9074 -0.175074 -0.0511218 -0.34727 
46 70.9754 50.0228 50.0047 -0.114278 0.0968241 0.0329376 
47 72.0032 50.0726 50.1322 -0.168401 0.281954 0.501053 
48 72.989 49.9123 50.0151 -0.0703846 -0.373056 0.0693862 
49 73.9509 50.0622 49.9244 -0.145941 0.267668 -0.313841 
ITEM: TIMESTEP 
500
ITEM: NUMBER OF ATOMS
50
ITEM: BOX BOUNDS pp pp pp
0	100
0	100
0	100
ITEM: ATOMS id x y z vx vy vz
0 25.011 49.9857 50.0129 0.560445 0.0193039 -0.0258551 
1 26.0196 50.084 49.905 0.000235874 -0.00287511 -0.055772 
2 26.9576 49.7648 50.099 0.0505211 -0.34171 -0.00637168 
3 27.9121 49.7605 49.8692 -0.209957 -0.452211 -0.145568 
4 28.9418 49.8297 49.8411 0.043337 -0.401615 -0.298748 
5 29.9774 49.7984 49.8591 0.186342 -0.121883 -0.354286 
6 30.9538 50.0839 49.7998 -0.267049 -0.110459 -0.207332 
7 31.9682 50.0656 49.9817 -0.139669 0.194276 -0.243419 
8 32.9828 50.1169 49.8938 0.00155567 0.14453 0.0122137 
9 33.983 50.0521 50.1176 0.405748 0.296165 0.130108 
10 35.0217 50.1763 50.1539 0.139893 0.116131 -0.0585337 
11 36.0084 50.0926 49.8814 -0.376539 0.142851 0.0474663 
12 37.0413 49.9267 49.8107 0.241448 0.191919 -0.351507 
13 38.0262 50.1042 49.8322 0.176134 -0.117709 -0.0514761 
14 39.0123 49.9935 50.099 0.205151 -0.0903753 -0.00280891 
15 40.0361 49.8181 50.1755 0.0533703 -0.0640637 0.12632 
16 41.0654 49.8927 50.0435 -0.244964 -0.245283 0.123385 
17 42.1026 49.97 49.9222 0.314203 -0.22858 0.222697 
18 43.0719 49.8704 50.1473 -0.0162418 -0.18311 -0.227705 
19 44.0428 49.8243 49.8884 -0.077296 -0.34307 0.252264 
20 45.033 49.8045 50.1836 0.322402 -0.179501 -0.131014 
21 46.0063 50.008 49.9038 -0.198176 -0.219687 0.223539 
22 47.0149 49.9604 50.0771 0.0527925 -0.0223996 0.00435338 
23 48.0366 49.9834 50.076 0.098292 0.0550576 0.264271 
24 49.0487 50.1229 50.1975 -0.107571 0.177334 0.195903 
25 50.0627 50.1845 50.0185 0.223574 0.188094 0.257244 
26 51.0183 49.9428 50.2002 0.0553949 -0.064611 0.21411 
27 52.0513 49.7903 50.1006 0.026037 -0.163396 0.287318 
28 53.0204 50.0549 50.1097 0.0440082 -0.0581068 0.0338248 
29 54.01 50.058 49.8522 0.318831 0.121032 0.0804177 
30 55.0175 50.0435 50.059 -0.0711147 -0.095344 -0.251958 
31 56.0101 49.8238 49.8796 -0.240883 -0.0758517 -0.0171982 
32 57.0123 49.9918 49.995 0.0977338 0.00851572 0.0186855 
33 57.9972 50.19 50.1507 -0.169257 0.211185 0.157865 
34 59.0063 50.0702 50.0285 0.0177265 0.196206 0.0705523 
35 60.012 50.0714 49.931 -0.0380798 0.132324 -0.101345 
36 61.0127 50.0476 49.925 -0.177391 0.0586781 -0.118216 
37 62.0111 49.8333 50.0675 0.124924 -0.28425 0.0335394 
38 62.9941 49.8528 49.8642 0.0563249 -0.122939 -0.127627 
39 63.9538 50.224 50.0138 0.0691754 0.207595 -0.0772232 
40 64.9778 50.1313 49.9657 -0.120891 0.365093 -0.03813 
41 66.0042 50.1959 49.9638 -0.305344 0.319794 -0.0414506 
42 66.9698 50.0131 50.1228 0.0190665 0.0891275 0.174297 
43 67.9699 50.145 49.933 0.223645 0.253529 -0.0297566 
44 68.985 50.127 50.063 -3.86527e-005 0.195435 -0.0392056 
45 69.9633 49.9875 49.8514 -0.050703 0.0719735 -0.113079 
46 70.9464 50.0482 50.0162 -0.0766502 0.107232 0.0675613 
47 71.9434 50.1116 50.2216 -0.0714598 0.00926284 0.20895 
48 72.912 49.8578 50.0396 -0.212083 0.0562944 0.0863923 
49 73.8627 50.1145 49.8555 -0.956955 0.0600906 -0.177693 
ITEM: TIMESTEP 
750
ITEM: NUMBER OF ATOMS
50
ITEM: BOX BOUNDS pp pp pp
0	100
0	100
0	100
ITEM: ATOMS id x y z vx vy vz
0 25.0875 49.9844 50.0138 0.142988 -0.0205327 0.0210851 
1 26.0937 50.0867 49.8857 0.417964 0.0417018 -0.104701 
2 27.006 49.6808 50.0837 0.634543 -0.36015 -0.15187 
3 27.9543 49.6584 49.8399 0.0547129 -0.381684 -0.0300655 
4 28.9613 49.7175 49.7733 -0.0334967 -0.46746 -0.256613 
5 29.9677 49.7963 49.7652 0.296381 0.12679 -0.385147 
6 30.9541 50.0318 49.7777 0.231718 -0.303135 0.0170755 
7 31.9902 50.121 49.8852 0.185741 0.207062 -0.48867 
8 32.9962 50.1339 49.9555 -0.17732 0.0270327 0.371832 
9 33.9983 50.1511 50.1042 0.0687303 0.446812 -0.168666 
10 35.0356 50.1805 50.1039 -0.0756142 -0.057857 -0.320309 
11 36.0256 50.1035 49.9044 0.134493 0.020442 0.140985 
12 37.0487 50.0302 49.7537 0.380259 0.555986 -0.101991 
13 38.0448 50.0377 49.85 -0.0636921 -0.414326 0.196149 
14 39.0567 49.9628 50.0696 -0.18308 -0.111827 -0.264968 
15 40.0655 49.8364 50.174 -0.0931349 0.14534 -0.0684307 
16 41.041 49.8366 50.0728 -0.108448 -0.224692 0.123403 
17 42.051 49.8922 50.0094 0.25977 -0.374872 0.445376 
18 43.053 49.8266 50.0712 -0.278624 -0.15763 -0.442284 
19 44.0617 49.7404 49.9899 -0.471588 -0.305955 0.453972 
20 45.0698 49.772 50.1093 0.367612 -0.104781 -0.306362 
21 46.0462 49.9381 49.9942 0.280076 -0.305817 0.41406 
22 47.0465 49.9639 50.0611 0.379595 0.0363734 -0.0718825 
23 48.0445 50.013 50.1528 0.129807 0.187041 0.330421 
24 49.0517 50.1567 50.204 -0.0616086 0.0736576 -0.0836799 
25 50.0723 50.1879 50.131 -0.0195003 -0.132842 0.582582 
26 51.0326 49.9414 50.222 0.134583 0.0422465 -0.012001 
27 52.0662 49.8034 50.1803 -0.117043 0.220299 0.338045 
28 53.0288 50.0074 50.089 -0.020477 -0.271688 -0.140334 
29 54.0161 50.0842 49.9151 -0.0491897 0.0786083 0.341622 
30 55.026 50.003 49.9715 -0.0656795 -0.172136 -0.388138 
31 56.0191 49.8486 49.9067 0.100353 0.156868 0.146234 
32 56.999 49.9935 50.0017 0.210158 0.0751519 0.0811762 
33 57.9596 50.204 50.1562 -0.180719 -0.0837064 -0.103153 
34 58.9836 50.132 50.0501 0.0902257 0.274652 0.0589159 
35 60.0049 50.1013 49.9162 0.0336167 0.0964788 0.0163855 
36 61.0249 50.0316 49.9177 -0.0774455 -0.156859 0.0418213 
37 62.0284 49.8027 50.0263 -0.0501017 0.0240193 -0.319015 
38 62.9979 49.8674 49.8798 -0.198242 0.122777 0.174243 
39 63.9429 50.2174 49.9704 -0.0534649 -0.116227 -0.207576 
40 64.9591 50.2356 49.9606 0.332022 0.439547 -0.00851031 
41 65.9836 50.2384 49.981 -0.147304 0.0524371 0.151535 
42 66.9547 50.0872 50.1102 -0.182763 0.451608 -0.215118 
43 67.9514 50.187 49.9628 -0.205455 0.109679 0.221332 
44 68.9678 50.1689 50.0324 -0.110375 0.134555 -0.200395 
45 69.9489 50.0173 49.8452 -0.199721 0.164935 0.0455317 
46 70.9095 50.074 50.0304 -0.483794 0.0862868 -0.0177327 
47 71.8618 50.1192 50.2722 -0.523214 0.159091 0.343305 
48 72.7988 49.8395 50.0753 -0.132184 -0.219344 0.0779654 
49 73.7109 50.1542 49.7914 -0.50207 0.186044 -0.277438 
ITEM: TIMESTEP 
1000
ITEM: NUMBER OF ATOMS
50
ITEM: BOX BOUNDS pp pp pp
0	100
0	100
0	100
ITEM: ATOMS id x y z vx vy vz
0 25.2094 49.9882 50.0079 0.227753 -0.00315573 0.00954787 
1 26.1708 50.0617 49.8835 0.477819 -0.0351447 -0.0594892 
2 27.0494 49.618 50.0479 0.595291 -0.316039 -0.204097 
3 28.0307 49.5626 49.8169 0.283974 -0.349175 -0.0455769 
4 29.0613 49.6137 49.7078 0.252064 -0.413465 -0.232525 
5 30.0333 49.8357 49.6759 0.350858 0.186725 -0.340806 
6 31.0084 49.9456 49.7858 0.292828 -0.329411 0.0196698 
7 32.0267 50.162 49.7699 0.307799 0.0975625 -0.358945 
8 32.9976 50.1481 50.0459 0.085985 0.104903 0.287011 
9 34.0174 50.2541 50.0468 0.181038 0.323859 -0.280558 
10 35.0453 50.1562 49.9996 -0.165499 -0.0824104 -0.456406 
11 36.0451 50.114 49.9411 0.098109 0.0788397 0.123673 
12 37.0513 50.1672 49.7611 -0.153008 0.49646 0.157239 
13 38.0108 49.9385 49.9011 -0.381084 -0.35301 0.1667 
14 39.0347 49.9306 50.0006 -0.0765189 -0.137008 -0.269413 
15 40.0347 49.8767 50.1456 0.0985434 0.155985 -0.149519 
16 41.0046 49.7869 50.1048 -0.229278 -0.182169 0.153644 
17 42.039 49.7977 50.1213 0.019341 -0.386777 0.401404 
18 43.0588 49.7806 49.963 0.0613829 -0.212859 -0.354714 
19 44.063 49.6757 50.1143 -0.00980306 -0.209044 0.47127 
20 45.0725 49.7493 50.0218 0.358886 -0.0221418 -0.345435 
21 46.073 49.8537 50.0975 -0.115121 -0.378328 0.386778 
22 47.1025 49.9704 50.0428 -0.168338 -0.0130037 -0.0480317 
23 48.0906 50.0618 50.2371 0.0463989 0.179487 0.328435 
24 49.0878 50.1748 50.1784 0.224464 0.0856439 -0.110382 
25 50.0721 50.1372 50.2828 -0.075789 -0.196746 0.63374 
26 51.0259 49.9639 50.2142 0.196123 0.0697851 -0.0423478 
27 52.0472 49.8676 50.261 -0.124425 0.2856 0.302912 
28 53.0194 49.9384 50.056 0.159986 -0.25269 -0.145134 
29 54.0146 50.0957 50.005 -0.139433 -0.0144725 0.369189 
30 55.0135 49.9578 49.8724 -0.0831183 -0.173812 -0.380927 
31 56.0179 49.8968 49.9463 0.188438 0.243105 0.181121 
32 57.0305 50.0089 50.0193 0.177908 0.090692 0.0882717 
33 58.0206 50.1775 50.1209 -0.0753625 -0.176523 -0.188704 
34 59.0285 50.2019 50.0583 0.147276 0.287631 0.03433 
35 59.99 50.1217 49.9377 -0.0508541 0.0799722 0.0899532 
36 60.9635 49.987 49.9342 -0.0362403 -0.220423 0.069271 
37 61.983 49.8257 49.9403 0.0342563 0.167671 -0.373702 
38 62.9851 49.918 49.927 -0.142354 0.272149 0.222202 
39 63.9595 50.1688 49.9144 -0.436626 -0.332946 -0.240629 
40 64.9405 50.3432 49.9585 0.111909 0.455627 0.00420457 
41 65.9399 50.2527 50.0177 -0.235932 0.0637892 0.142971 
42 66.9308 50.1998 50.0558 -0.253666 0.446362 -0.209762 
43 67.9091 50.2123 50.0239 -0.484088 0.10861 0.24844 
44 68.8836 50.2088 49.9846 -0.131296 0.201487 -0.156382 
45 69.8567 50.0484 49.8357 0.0713816 0.0863022 -0.0536112 
46 70.8499 50.0991 50.0373 -0.144736 0.104142 0.0744947 
47 71.8116 50.1396 50.3474 -0.40525 0.0590322 0.214895 
48 72.7207 49.8123 50.1023 -0.231347 -0.0443347 0.0652991 
49 73.5668 50.1933 49.7289 -0.700643 0.103666 -0.199567 
ITEM: TIMESTEP 
1250
ITEM: NUMBER OF ATOMS
50
ITEM: BOX BOUNDS pp pp pp
0	100
0	100
0	100
ITEM: ATOMS id x y z vx vy vz
0 25.3043 49.9896 50.0051 0.750362 0.0297583 -0.0601232 
1 26.2847 50.0333 49.879 0.352867 -0.283047 0.0705375 
2 27.1717 49.556 49.9902 0.214703 -0.101933 -0.268706 
3 28.1545 49.4785 49.8009 0.51074 -0.33533 -0.0672461 
4 29.1655 49.5357 49.6511 0.805761 -0.193269 -0.243744 
5 30.1115 49.8583 49.6093 0.577083 0.00141967 -0.144277 
6 31.1017 49.8843 49.7735 0.169953 -0.152772 -0.175992 
7 32.1099 50.1606 49.7218 0.117089 -0.130703 -0.087209 
8 33.031 50.1894 50.0752 0.158726 0.198851 0.019269 
9 34.0245 50.3099 49.9755 0.0998431 0.139201 -0.29502 
10 35.0199 50.1432 49.8892 -0.215051 -0.00608942 -0.415872 
11 36.0236 50.1419 49.9634 0.216354 0.176253 0.00915651 
12 37.0384 50.2579 49.8228 -0.196436 0.167895 0.381695 
13 37.9591 49.879 49.9398 -0.23321 -0.0976173 0.110332 
14 38.9878 49.8936 49.9395 0.13231 -0.151288 -0.149579 
15 40.022 49.9074 50.0956 0.205956 -0.0127261 -0.286645 
16 41.0323 49.7515 50.1443 -0.150717 -0.0287346 0.162771 
17 42.0849 49.7004 50.1806 -0.00515567 -0.366982 0.106516 
18 43.0749 49.7104 49.9501 0.308752 -0.342692 0.216413 
19 44.0554 49.6566 50.1664 -0.0184133 0.0457733 -0.0839969 
20 45.0656 49.7343 49.9766 -0.0485694 -0.0840181 0.0773588 
21 46.0712 49.7689 50.1718 -0.297501 -0.299465 0.128355 
22 47.084 49.9665 50.0689 -0.277029 -0.0685457 0.196209 
23 48.047 50.1006 50.2814 0.11536 0.180544 0.0699908 
24 49.0642 50.1856 50.1644 0.0858886 -0.0685517 0.176478 
25 50.0635 50.089 50.4307 -0.425897 -0.170129 0.359195 
26 51.0558 49.9824 50.2076 0.0585138 0.105526 0.0601767 
27 52.0836 49.941 50.3227 -0.0329858 0.307113 0.204709 
28 53.0488 49.8827 50.0351 0.541373 -0.137655 -0.058911 
29 54.0444 50.0654 50.0749 0.095191 -0.281106 0.15958 
30 55.0203 49.9278 49.8153 -0.112671 -0.0559535 -0.0792852 
31 55.9981 49.969 49.9805 -0.146754 0.313522 0.112183 
32 57.0033 50.0249 50.0368 -0.362345 0.0453901 0.0547489 
33 58.0018 50.1313 50.0721 -0.0589525 -0.178308 -0.193317 
34 59.0198 50.2772 50.0728 0.259222 0.254482 0.0180936 
35 60.0038 50.1405 49.9552 -0.200499 0.104009 0.108271 
36 60.976 49.9265 49.9545 -0.311713 -0.204216 0.102304 
37 61.9772 49.871 49.8423 0.0795764 0.133239 -0.434805 
38 62.9566 49.9856 49.9828 0.287568 0.322674 0.225037 
39 63.9319 50.104 49.86 -0.402777 -0.33482 -0.209967 
40 64.8564 50.4432 49.9529 -0.30596 0.452969 -0.0142988 
41 65.8305 50.2669 50.0548 -0.450127 0.0558588 0.14732 
42 66.8612 50.3092 50.006 0.000490503 0.414242 -0.174705 
43 67.8769 50.2403 50.0823 -0.139769 0.130176 0.193818 
44 68.8705 50.2549 49.9441 -0.236456 0.180846 -0.143491 
45 69.8401 50.0732 49.8226 -0.240446 0.092426 -0.0870561 
46 70.8124 50.1255 50.0541 -0.171692 0.108792 0.0386871 
47 71.7419 50.148 50.4007 -0.221114 0.0888942 0.316988 
48 72.6259 49.7996 50.1317 -0.164463 -0.0526247 0.0276239 
49 73.4098 50.2275 49.671 -0.716977 0.0887198 -0.179572 
ITEM: TIMESTEP 
1500
ITEM: NUMBER OF ATOMS
50
ITEM: BOX BOUNDS pp pp pp
0	100
0	100
0	100
ITEM: ATOMS id x y z vx vy vz
0 25.4177 49.9947 49.9993 0.540143 0.0162464 -0.0321868 
1 26.4292 49.9743 49.8859 0.581157 -0.275763 0.0350756 
2 27.3407 49.5121 49.9076 0.575216 -0.129 -0.333853 
3 28.3033 49.411 49.7826 0.76303 -0.262284 -0.0933139 
4 29.2785 49.4911 49.6075 0.487662 -0.117165 -0.15692 
5 30.2052 49.8471 49.571 0.0593884 -0.117259 -0.165865 
6 31.1852 49.8519 49.7309 0.176492 -0.206961 -0.140574 
7 32.1618 50.1258 49.7182 0.385843 -0.08006 -0.0639662 
8 33.0563 50.239 50.0598 0.501406 0.249224 -0.0655445 
9 34.0523 50.3357 49.9026 0.0567592 0.0264368 -0.27236 
10 35.0364 50.1482 49.7976 -0.19548 0.0614889 -0.351615 
11 36.0256 50.19 49.9516 0.511224 0.232221 -0.055427 
12 37.0549 50.2473 49.933 0.128525 -0.297392 0.494762 
13 38.0045 49.9037 49.9545 0.213325 0.31451 0.0122273 
14 39.0144 49.8584 49.9336 0.246208 -0.122104 0.0634163 
15 40.039 49.8737 50.0119 0.0338591 -0.245332 -0.328435 
16 41.0261 49.7568 50.1742 -0.179674 0.0634495 0.0422729 
17 42.0447 49.6242 50.1657 -0.252253 -0.247931 -0.146739 
18 43.0438 49.6237 50.0488 -0.0183207 -0.33921 0.545196 
19 44.0486 49.672 50.1253 -0.430733 0.0568307 -0.247901 
20 45.0719 49.7109 50.0223 -0.0780481 -0.0980241 0.20674 
21 46.0623 49.7218 50.176 0.392855 -0.0873562 -0.0158333 
22 47.0513 49.9481 50.1636 -0.0195102 -0.0822299 0.501985 
23 48.0228 50.125 50.2543 -0.00918704 0.0291826 -0.237874 
24 49.0586 50.1501 50.2466 -0.188733 -0.222438 0.473423 
25 50.0658 50.0392 50.447 -0.0985239 -0.172261 -0.13471 
26 51.0595 50.021 50.2891 0.381784 0.167416 0.464249 
27 52.0596 50.0068 50.3006 -0.436623 0.234512 -0.261643 
28 53.0287 49.8688 50.0755 -0.176536 0.0328626 0.297098 
29 54.0321 49.9916 50.1171 -0.358827 -0.336908 0.146745 
30 55.0079 49.9141 49.7934 -0.00538618 -0.0522906 -0.0696809 
31 55.9854 50.047 50.0086 0.338812 0.31066 0.121133 
32 56.9986 50.0461 50.0508 -0.277247 0.098425 0.0402843 
33 57.9867 50.095 50.0231 -0.109957 -0.137815 -0.196671 
34 58.9739 50.3212 50.0761 0.125317 0.0802687 -0.0348922 
35 59.9796 50.1589 49.9822 -0.115489 0.0275814 0.148263 
36 60.9624 49.8812 49.9666 -0.316715 -0.068273 0.0264767 
37 61.9437 49.9129 49.7559 -0.105512 0.197338 -0.270395 
38 62.9137 50.0513 50.0392 0.204312 0.231278 0.0430487 
39 63.9291 50.0426 49.8026 -0.217421 -0.0518276 -0.0376892 
40 64.8382 50.5251 49.9554 0.0048593 0.0406579 0.00357162 
41 65.7968 50.3086 50.0718 -0.342651 0.28089 -0.000716064 
42 66.7992 50.395 49.9821 -0.225457 0.301968 -0.0498372 
43 67.7864 50.2822 50.113 -0.249478 0.199038 0.0242632 
44 68.7836 50.2958 49.9142 -0.433403 0.101015 -0.0819815 
45 69.7767 50.1006 49.8063 -0.324686 0.177165 0.0219151 
46 70.7646 50.1521 50.0646 -0.216636 0.0987235 0.0672116 
47 71.6849 50.1667 50.4727 -0.32537 0.0324487 0.176336 
48 72.5511 49.7744 50.1582 -0.313304 -0.00633641 0.0735884 
49 73.2569 50.2651 49.6094 -0.687017 0.0943834 -0.182658 
ITEM: TIMESTEP 
1750
ITEM: NUMBER OF ATOMS
50
ITEM: BOX BOUNDS pp pp pp
0	100
0	100
0	100
ITEM: ATOMS id x y z vx vy vz
0 25.5812 49.9992 49.9879 0.339821 0.0474333 -0.0166666 
1 26.5586 49.898 49.8995 0.646897 -0.248937 0.0361248 
2 27.4524 49.4889 49.8252 0.416419 -0.143661 -0.329391 
3 28.4111 49.3338 49.7763 0.523899 -0.35579 -0.0148653 
4 29.3958 49.4283 49.553 0.392696 -0.319452 -0.231352 
5 30.3068 49.8615 49.5217 0.287555 0.15083 -0.261444 
6 31.2744 49.8064 49.699 0.653598 -0.201322 -0.0709418 
7 32.2286 50.0999 49.7004 0.343512 -0.0921753 -0.0527856 
8 33.122 50.295 50.0578 0.427334 0.226618 -0.0827451 
9 34.1381 50.3464 49.8216 0.182405 0.0240275 -0.273783 
10 35.1206 50.1718 49.7334 0.206709 0.0959673 -0.269358 
11 36.0774 50.2419 49.9166 0.653858 0.196756 -0.082469 
12 37.0755 50.1566 50.0537 -0.0718669 -0.39381 0.430165 
13 38.0674 49.9938 49.9576 0.0162073 0.419624 0.0248445 
14 39.0488 49.8325 49.9533 0.178358 -0.112572 0.0787557 
15 40.0528 49.8078 49.9346 0.0113497 -0.265057 -0.316296 
16 41.0119 49.7665 50.1762 0.0846906 0.0196842 0.0109162 
17 42.0002 49.5714 50.1252 0.036038 -0.195456 -0.158379 
18 43.0155 49.5469 50.1866 0.211594 -0.223582 0.499293 
19 44.021 49.6832 50.057 -0.318655 -0.0279918 -0.223202 
20 45.0473 49.6841 50.1016 -0.229852 -0.108554 0.357341 
21 46.0521 49.7055 50.1576 0.30639 0.0829651 -0.0398867 
22 47.0564 49.9284 50.285 -0.354328 -0.173614 0.405096 
23 48.0506 50.1255 50.1962 -0.0970617 -0.0571494 -0.211885 
24 49.041 50.0822 50.3825 -0.267234 -0.26324 0.542789 
25 50.0211 50.007 50.3848 -0.0753386 -0.140536 -0.271422 
26 51.016 50.064 50.4139 0.208092 0.176218 0.447083 
27 52.0191 50.0629 50.2337 -0.395947 0.200026 -0.212866 
28 53.0375 49.884 50.1535 0.0862484 0.0988421 0.322964 
29 54.0265 49.8929 50.1035 -0.113459 -0.419432 -0.0932413 
30 54.9806 49.9288 49.8522 -0.0961032 0.0869395 0.302195 
31 55.9501 50.1055 50.0123 0.373794 0.198816 0.0139059 
32 56.9835 50.0726 50.0574 -0.337301 0.131903 -0.0226394 
33 57.9951 50.081 49.9828 -0.187976 -0.031361 -0.130962 
34 58.9672 50.3104 50.0571 0.0324875 -0.105195 -0.0940381 
35 59.9721 50.153 50.0213 0.201136 -0.109542 0.140292 
36 60.9602 49.8942 49.9422 0.0584538 0.199837 -0.176898 
37 61.9312 49.9769 49.7706 -0.258993 0.263595 0.247848 
38 62.8876 50.0848 49.98 -0.398417 0.094941 -0.322848 
39 63.864 50.0736 49.8281 -0.464896 0.0185228 0.0753912 
40 64.7691 50.4932 49.9437 0.115556 -0.049783 0.00426656 
41 65.7354 50.381 50.0674 -0.199759 0.336061 -0.059642 
42 66.7488 50.4629 49.9779 -0.31944 0.240746 0.016821 
43 67.7358 50.3368 50.1034 -0.116336 0.227803 -0.0922258 
44 68.7161 50.3037 49.895 -0.382151 0.0188791 -0.045799 
45 69.6996 50.1665 49.8458 -0.251708 0.284478 0.201158 
46 70.6693 50.1728 50.0811 -0.324966 0.0782238 0.116821 
47 71.5788 50.1611 50.4811 -0.585769 -0.0355703 -0.0626118 
48 72.4501 49.7904 50.1836 -0.507921 0.0185115 0.181555 
49 73.0779 50.2845 49.5678 -0.639619 0.135534 -0.234982 
ITEM: TIMESTEP 
2000
ITEM: NUMBER OF ATOMS
50
ITEM: BOX BOUNDS pp pp pp
0	100
0	100
0	100
ITEM: ATOMS id x y z vx vy vz
0 25.667 50.0108 49.9837 0.37916 0.0414844 -0.0195121 
1 26.6642 49.8613 49.913 0.698765 -0.288479 -0.00188566 
2 27.5781 49.433 49.7405 0.305206 -0.0981687 -0.277879 
3 28.5699 49.2386 49.7725 0.531424 -0.356434 -0.0230274 
4 29.538 49.3684 49.4918 0.558384 -0.244883 -0.239922 
5 30.3968 49.8749 49.4689 0.548308 0.0383023 -0.173757 
6 31.3683 49.7575 49.6706 0.661028 -0.0179559 -0.143672 
7 32.3361 50.083 49.6897 -0.0708551 -0.238445 -0.0610473 
8 33.2313 50.3513 50.0334 0.318569 0.231246 -0.0487992 
9 34.2136 50.3436 49.7501 0.407394 -0.00297084 -0.322404 
10 35.1813 50.2068 49.68 0.42857 0.148017 -0.185821 
11 36.1461 50.2917 49.879 0.440964 0.106376 -0.082466 
12 37.1084 50.0511 50.1682 -0.175477 -0.335537 0.357597 
13 38.1084 50.0921 49.9636 0.192274 0.385883 0.0273834 
14 39.0665 49.812 49.9713 0.45952 -0.105579 0.0333698 
15 40.0826 49.7426 49.8699 0.0858572 -0.233597 -0.104898 
16 41.06 49.7565 50.1618 0.164364 -0.12115 -0.196497 
17 42.0442 49.5349 50.1002 0.059226 -0.0726058 -0.0416255 
18 43.0443 49.5058 50.2859 0.334604 -0.0831328 0.252694 
19 44.0185 49.6636 50.0297 0.0586864 -0.154733 0.0653007 
20 45.0192 49.6642 50.1824 -0.23579 -0.0612241 0.265561 
21 46.0164 49.7345 50.1552 0.017681 0.199066 0.0960413 
22 47.0061 49.8927 50.3607 -0.556637 -0.200056 0.159035 
23 48.0007 50.0833 50.1799 0.2403 -0.253325 0.159291 
24 48.9822 50.0167 50.4839 0.00913746 -0.261979 0.106293 
25 50.003 49.9854 50.3383 -0.284881 0.0263611 0.0151975 
26 51.0198 50.0991 50.5035 -0.38313 0.0677617 0.177338 
27 51.9803 50.0941 50.1844 -0.439566 0.126736 -0.114271 
28 52.9948 49.9229 50.2364 0.320067 0.110496 0.274335 
29 53.9845 49.7989 50.0824 -0.0173888 -0.244651 -0.135137 
30 54.9804 49.9546 49.9396 -0.632187 0.0180582 0.464579 
31 55.9752 50.1459 50.007 0.1417 0.157945 -0.0233875 
32 56.9914 50.105 50.0462 0.0496173 0.131617 -0.0520035 
33 57.9908 50.0988 49.965 0.159753 0.12716 -0.046553 
34 58.9428 50.2446 50.0225 -0.383182 -0.3196 -0.164307 
35 59.9164 50.1426 50.0621 -0.543206 0.0396038 0.217852 
36 60.8775 49.9308 49.9119 -0.37666 0.0261726 -0.113876 
37 61.8568 50.0403 49.792 -0.126883 0.269645 -0.0103421 
38 62.8469 50.1224 49.9311 -0.175221 0.179845 -0.128976 
39 63.829 50.0846 49.8405 -0.101475 -0.0529075 0.00135695 
40 64.7374 50.4789 49.9368 0.043392 0.033665 -0.0103233 
41 65.7047 50.4578 50.0602 -0.269251 0.293624 -0.00843161 
42 66.7044 50.5235 49.9816 -0.413721 0.309955 -0.0453351 
43 67.668 50.3964 50.0849 0.0117414 0.194648 0.000513462 
44 68.6185 50.3102 49.8781 -0.535932 0.0408458 -0.0949428 
45 69.602 50.2353 49.8801 -0.405557 0.257855 0.0681875 
46 70.5757 50.193 50.0914 -0.203653 0.0757338 0.0532332 
47 71.4894 50.1593 50.5066 -0.301867 0.0191911 0.181551 
48 72.3647 49.8024 50.2019 -0.350293 -0.0548105 0.148446 
49 72.8972 50.3023 49.5292 -0.642881 0.14493 -0.254056 
ITEM: TIMESTEP 
2250
ITEM: NUMBER OF ATOMS
50
ITEM: BOX BOUNDS pp pp pp
0	100
0	100
0	100
ITEM: ATOMS id x y z vx vy vz
0 25.8444 50.0078 49.9731 0.654374 0.00582112 -0.0389181 
1 26.8096 49.7784 49.907 0.889208 -0.458065 -0.0861091 
2 27.7119 49.4095 49.6873 0.475064 -0.0265425 -0.145393 
3 28.6869 49.1858 49.7334 0.603476 -0.123076 -0.263152 
4 29.6406 49.3294 49.4588 0.293679 -0.0734678 -0.0391616 
5 30.4858 49.8478 49.4289 0.143628 -0.236945 -0.1555 
6 31.4719 49.7368 49.6312 0.535047 -0.0437552 -0.144708 
7 32.431 50.0599 49.6986 0.0341239 -0.219776 -0.0481287 
8 33.3117 50.3891 49.9802 0.717232 0.232203 -0.192568 
9 34.2792 50.3416 49.6866 0.538542 -0.0509421 -0.228663 
10 35.2801 50.2472 49.6389 0.303905 0.236064 -0.0581897 
11 36.2747 50.3082 49.865 0.368987 -0.0316488 -0.0582388 
12 37.192 49.9891 50.2119 0.335167 -0.158225 0.0509525 
13 38.1521 50.1254 50.0053 0.430248 -0.0331614 0.210956 
14 39.0916 49.8296 49.9725 0.206112 0.151789 -0.0527312 
15 40.1076 49.6919 49.8717 -0.233644 -0.13155 0.123575 
16 41.1135 49.7068 50.0888 0.215282 -0.252903 -0.356107 
17 42.0836 49.5316 50.1142 -0.0276173 0.0362657 0.0722307 
18 43.0543 49.4939 50.3181 0.0585683 -0.036925 0.0999922 
19 44.0177 49.6195 50.059 0.0839829 -0.181997 0.165201 
20 45.0098 49.6549 50.2427 0.0150003 -0.019502 0.203588 
21 46.0148 49.7858 50.1942 0.254859 0.232562 0.250687 
22 46.9984 49.8702 50.3546 -0.44797 -0.120323 -0.132664 
23 47.9863 49.9773 50.2881 0.10722 -0.455882 0.51706 
24 48.9529 49.9572 50.4632 -0.113738 -0.220209 -0.170286 
25 49.9629 50.0067 50.374 -0.0173563 0.117938 0.216117 
26 50.9775 50.1019 50.4716 0.00966756 -0.0290695 -0.349601 
27 51.9306 50.0892 50.2283 -0.221547 -0.0935332 0.385458 
28 52.938 49.9709 50.2705 -0.0536665 0.132273 -0.0407174 
29 53.9285 49.7641 50.0658 -0.194202 0.152411 0.0580622 
30 54.9394 49.9806 50.0638 -0.833237 -0.0379436 0.52918 
31 55.9181 50.1517 49.9972 -0.391841 0.0087136 -0.0581588 
32 56.8829 50.1416 50.0351 -0.575121 0.152533 -0.018795 
33 57.8907 50.1036 49.9383 -0.310487 -0.00713359 -0.137478 
34 58.8935 50.2033 49.9821 -0.239121 -0.126035 -0.163914 
35 59.8992 50.1457 50.1323 -0.123669 0.0512065 0.353026 
36 60.8332 49.9345 49.875 -0.0298777 -0.0617208 -0.200039 
37 61.7966 50.1043 49.7914 -0.00519597 0.284756 0.00330403 
38 62.7925 50.1683 49.9011 -0.370625 0.17832 -0.133075 
39 63.7808 50.0534 49.8355 -0.282069 -0.179456 -0.0334668 
40 64.6744 50.5057 49.9236 -0.375519 0.15748 -0.0752498 
41 65.6514 50.523 50.0819 -0.348371 0.234092 0.15706 
42 66.6411 50.6167 49.9535 -0.32599 0.471791 -0.217067 
43 67.6028 50.4489 50.1211 0.25217 0.125559 0.185892 
44 68.5512 50.3116 49.8248 -0.417654 0.0245308 -0.187054 
45 69.5598 50.2965 49.8983 -0.28463 0.255597 0.031806 
46 70.5247 50.2117 50.1045 -0.011048 0.0586918 0.093155 
47 71.417 50.1629 50.5511 -0.169334 -0.0347057 0.13562 
48 72.2897 49.8061 50.218 -0.374217 0.109341 0.04587 
49 72.7213 50.3223 49.4878 -0.747793 0.0345548 -0.103658 
ITEM: TIMESTEP 
2500
ITEM: NUMBER OF ATOMS
50
ITEM: BOX BOUNDS pp pp pp
0	100
0	100
0	100
ITEM: ATOMS id x y z vx vy vz
0 26.0171 50.0075 49.9626 0.509219 0.0580635 -0.0300157 
1 26.9544 49.6923 49.9035 0.61758 -0.350566 0.0133231 
2 27.8496 49.3885 49.6312 0.215647 -0.0168008 -0.287261 
3 28.8111 49.1309 49.691 0.707777 -0.383157 -0.0723502 
4 29.7539 49.3011 49.4294 0.546196 -0.174741 -0.183653 
5 30.5924 49.8064 49.3957 0.389168 -0.0431562 -0.181795 
6 31.5787 49.7321 49.5893 0.954367 0.0644788 -0.0883083 
7 32.5247 50.039 49.7114 0.203394 -0.130104 0.0595233 
8 33.4252 50.409 49.898 0.605168 0.0015401 -0.456827 
9 34.403 50.3298 49.6369 0.307328 -0.0281607 -0.117278 
10 35.4038 50.3111 49.6392 0.177484 0.268602 -0.0464326 
11 36.3607 50.2761 49.8579 0.380307 -0.076876 -0.0482747 
12 37.2383 49.9729 50.1995 0.440896 -0.113293 0.0031506 
13 38.204 50.1254 50.0625 0.167381 -0.0241187 0.239878 
14 39.153 49.8618 49.959 -0.139737 0.203286 -0.0291581 
15 40.1283 49.6547 49.916 -0.0270909 -0.207359 0.113727 
16 41.1185 49.6431 49.9882 0.653362 -0.283769 -0.343623 
17 42.0802 49.5394 50.1313 0.115738 0.0409415 0.117019 
18 43.0762 49.487 50.3374 -0.158752 -0.00601084 -0.00292685 