ITEM: TIMESTEP 
0
ITEM: NUMBER OF ATOMS
200
ITEM: BOX BOUNDS pp pp pp
0	15.1
0	15.1
0	15.1
ITEM: ATOMS id x y z vx vy vz
0 1 1 1 0.0264383 -0.00223144 0.00571848 
1 2.2 1 1 -0.449483 0.176897 -0.456774 
2 3.4 1 1 0.502268 0.16646 0.427652 
3 4.6 1 1 -0.371844 -0.0636194 -0.279797 
4 5.8 1 1 0.307102 -0.361755 -0.327559 
5 7 1 1 -0.0449598 -0.354278 -0.0997993 
6 8.2 1 1 -0.290878 0.00739715 -0.3647 
7 9.4 1 1 0.467812 0.0664505 0.271794 
8 10.6 1 1 0.161071 -0.451662 -0.467914 
9 11.8 1 1 -0.411365 0.160203 -0.0472769 
10 13 1 1 0.238374 -0.0644129 -0.425584 
11 14.2 1 1 -0.33516 -0.124504 0.31391 
12 1 2.2 1 -0.38283 0.46194 -0.142281 
13 2.2 2.2 1 -0.323594 -0.0881868 0.0261811 
14 3.4 2.2 1 -0.0859767 -0.422059 -0.433061 
15 4.6 2.2 1 0.145476 0.408868 -0.260632 
16 5.8 2.2 1 0.410559 0.433039 0.209292 
17 7 2.2 1 -0.127879 0.438746 -0.492481 
18 8.2 2.2 1 0.0707969 -0.0562339 0.0452857 
19 9.4 2.2 1 -0.269027 0.346549 -0.423936 
20 10.6 2.2 1 -0.246046 0.434046 0.337134 
21 11.8 2.2 1 0.422248 0.00889256 0.0709213 
22 13 2.2 1 -0.247664 0.204058 0.0898122 
23 14.2 2.2 1 -0.0994658 -0.409516 -0.399979 
24 1 3.4 1 0.373541 -0.376007 0.251804 
25 2.2 3.4 1 0.331791 -0.00249084 -0.079596 
26 3.4 3.4 1 -0.142497 -0.371246 0.491741 
27 4.6 3.4 1 -0.0225897 -0.419526 -0.236949 
28 5.8 3.4 1 0.100827 -0.0526938 0.303472 
29 7 3.4 1 0.500833 0.352043 -0.230327 
30 8.2 3.4 1 0.0769311 0.1512 -0.0650997 
31 9.4 3.4 1 -0.0418469 -0.317991 0.403573 
32 10.6 3.4 1 0.115415 -0.219264 0.114959 
33 11.8 3.4 1 0.300784 -0.260769 -0.223765 
34 13 3.4 1 -0.0351023 -0.471988 0.39106 
35 14.2 3.4 1 -0.297378 0.490566 -0.290632 
36 1 4.6 1 0.431526 -0.151269 -0.288098 
37 2.2 4.6 1 -0.441609 0.467311 0.149812 
38 3.4 4.6 1 -0.010596 -0.436159 0.321081 
39 4.6 4.6 1 -0.295303 0.395257 0.401132 
40 5.8 4.6 1 -0.277389 0.124314 -0.30586 
41 7 4.6 1 0.417182 -0.222804 -0.346847 
42 8.2 4.6 1 -0.0954374 0.368706 -0.223064 
43 9.4 4.6 1 0.161254 0.246418 0.105224 
44 10.6 4.6 1 0.0778162 -0.0643824 -0.208354 
45 11.8 4.6 1 0.0441237 -0.402894 -0.285657 
46 13 4.6 1 0.289187 0.117905 -0.00198744 
47 14.2 4.6 1 -0.441029 0.470058 0.384957 
48 1 5.8 1 -0.216779 -0.00401677 -0.350936 
49 2.2 5.8 1 -0.348833 0.353202 0.368812 
50 3.4 5.8 1 -0.40517 0.282247 -0.40529 
51 4.6 5.8 1 0.49769 0.473506 -0.101356 
52 5.8 5.8 1 -0.277114 -0.423372 0.18265 
53 7 5.8 1 -0.200238 -0.0691128 -0.24937 
54 8.2 5.8 1 -0.452199 -0.202082 -0.0856692 
55 9.4 5.8 1 -0.0318063 -0.314146 -0.346694 
56 10.6 5.8 1 0.49238 -0.459109 0.352912 
57 11.8 5.8 1 0.457405 0.380516 0.351203 
58 13 5.8 1 0.247804 0.144425 -0.318098 
59 14.2 5.8 1 -0.195355 0.0770404 -0.176981 
60 1 7 1 -0.181011 0.458095 -0.302656 
61 2.2 7 1 -0.225263 0.460383 -0.236034 
62 3.4 7 1 -0.191845 -0.200464 -0.489551 
63 4.6 7 1 -0.470998 -0.501377 0.10025 
64 5.8 7 1 0.382635 -0.483371 0.466563 
65 7 7 1 0.0523943 -0.388062 0.134888 
66 8.2 7 1 -0.119333 0.0400825 0.373848 
67 9.4 7 1 0.30698 -0.308561 0.0493447 
68 10.6 7 1 -0.369555 0.454707 -0.292554 
69 11.8 7 1 -0.134226 0.460139 0.0360081 
70 13 7 1 -0.0913479 -0.443148 -0.363418 
71 14.2 7 1 0.233918 0.302298 0.430551 
72 1 8.2 1 -0.320359 0.226825 0.137848 
73 2.2 8.2 1 -0.183148 0.432764 -0.0178265 
74 3.4 8.2 1 0.452767 -0.146935 -0.266156 
75 4.6 8.2 1 -0.330155 -0.24551 -0.0364428 
76 5.8 8.2 1 -0.0982146 -0.373993 0.155488 
77 7 8.2 1 -0.118143 -0.406983 0.30863 
78 8.2 8.2 1 0.43238 -0.105369 0.0956718 
79 9.4 8.2 1 -0.158122 0.315695 0.499401 
80 10.6 8.2 1 0.282534 -0.420442 -0.174234 
81 11.8 8.2 1 -0.176952 0.278554 -0.370956 
82 13 8.2 1 -0.372912 -0.0190014 0.408975 
83 14.2 8.2 1 0.432777 0.20653 0.0689376 
84 1 9.4 1 0.150572 0.337333 0.191683 
85 2.2 9.4 1 -0.365923 -0.359283 -0.407731 
86 3.4 9.4 1 0.281466 0.305746 -0.188639 
87 4.6 9.4 1 0.374883 0.0942223 -0.222545 
88 5.8 9.4 1 0.369298 0.271352 -0.250317 
89 7 9.4 1 0.487069 -0.321623 0.156434 
90 8.2 9.4 1 0.157195 0.175096 0.11029 
91 9.4 9.4 1 -0.432179 -0.185388 0.0133939 
92 10.6 9.4 1 -0.414661 -0.494236 0.435617 
93 11.8 9.4 1 0.150389 -0.140862 0.0997613 
94 13 9.4 1 -0.123789 0.353538 -0.378891 
95 14.2 9.4 1 -0.261306 -0.333525 -0.0594843 
96 1 10.6 1 -0.372637 0.0953515 -0.0363818 
97 2.2 10.6 1 0.346165 -0.0773527 -0.0138897 
98 3.4 10.6 1 -0.101297 -0.494938 -0.281537 
99 4.6 10.6 1 0.163573 0.121842 -0.25819 
100 5.8 10.6 1 -0.351213 -0.0284621 -0.137062 
101 7 10.6 1 0.0155279 -0.0410968 0.304693 
102 8.2 10.6 1 -0.0206671 0.199084 -0.306074 
103 9.4 10.6 1 0.469216 0.296102 -0.415605 
104 10.6 10.6 1 0.109006 0.375176 0.0552958 
105 11.8 10.6 1 -0.0387035 0.356071 0.00191893 
106 13 10.6 1 0.446175 0.449031 0.0142179 
107 14.2 10.6 1 0.23343 0.0215883 -0.226512 
108 1 11.8 1 0.185485 -0.00618358 0.317145 
109 2.2 11.8 1 -0.164104 -0.289212 0.125122 
110 3.4 11.8 1 0.145171 0.25359 -0.4265 
111 4.6 11.8 1 -0.396747 -0.131584 0.0649091 
112 5.8 11.8 1 -0.288131 -0.476596 0.470561 
113 7 11.8 1 -0.0557939 0.295614 -0.204142 
114 8.2 11.8 1 0.394781 0.108139 0.0336887 
115 9.4 11.8 1 -0.350725 -0.0434467 -0.395676 
116 10.6 11.8 1 0.234925 -0.127983 -0.353835 
117 11.8 11.8 1 -0.170788 0.176256 0.232273 
118 13 11.8 1 -0.206128 -0.0442096 -0.153848 
119 14.2 11.8 1 -0.324967 -0.0978001 0.462474 
120 1 13 1 0.284396 -0.274746 0.462443 
121 2.2 13 1 0.109922 -0.426484 0.0390905 
122 3.4 13 1 0.227021 -0.45331 0.0490395 
123 4.6 13 1 0.200287 -0.256832 0.234317 
124 5.8 13 1 0.449562 -0.308317 0.464244 
125 7 13 1 -0.460347 -0.437196 0.483867 
126 8.2 13 1 -0.0893032 -0.325834 0.433664 
127 9.4 13 1 -0.163097 0.186297 -0.327895 
128 10.6 13 1 0.356237 -0.252956 -0.334548 
129 11.8 13 1 -0.245924 -0.294706 -0.021855 
130 13 13 1 -0.175579 0.256764 0.173799 
131 14.2 13 1 -0.22389 0.0207643 -0.180216 
132 1 14.2 1 0.137724 0.19591 -0.461505 
133 2.2 14.2 1 -0.322617 -0.295346 0.482921 
134 3.4 14.2 1 0.370183 -0.265652 -0.488544 
135 4.6 14.2 1 0.105649 0.0414863 -0.381668 
136 5.8 14.2 1 0.493875 -0.130089 0.294897 
137 7 14.2 1 0.055263 -0.31735 0.0559672 
138 8.2 14.2 1 -0.395709 -0.251919 -0.406571 
139 9.4 14.2 1 -0.324113 0.325705 0.450785 
140 10.6 14.2 1 -0.068398 -0.218989 -0.199198 
141 11.8 14.2 1 0.0836757 0.167986 0.261326 
142 13 14.2 1 -0.114695 -0.428499 0.051481 
143 14.2 14.2 1 -0.266463 0.20708 -0.405137 
144 1 1 2.2 0.280978 -0.0516562 -0.0291489 
145 2.2 1 2.2 -0.397784 0.391412 -0.342025 
146 3.4 1 2.2 0.281466 0.263081 0.420816 
147 4.6 1 2.2 0.0415907 -0.209315 0.0534037 
148 5.8 1 2.2 0.0802271 -0.382019 -0.0156292 
149 7 1 2.2 -0.179485 -0.0184825 0.0883168 
150 8.2 1 2.2 -0.41814 0.0076413 -0.00992225 
151 9.4 1 2.2 -0.295639 0.352745 -0.270459 
152 10.6 1 2.2 -0.0761192 -0.40622 0.167573 
153 11.8 1 2.2 0.0465042 -0.345488 -0.0167584 
154 13 1 2.2 0.254915 -0.383575 0.176607 
155 14.2 1 2.2 0.416602 0.468959 0.417215 
156 1 2.2 2.2 0.367376 -0.101584 -0.114448 
157 2.2 2.2 2.2 0.385656 -0.00801469 0.404275 
158 3.4 2.2 2.2 0.19751 -0.346129 0.021054 
159 4.6 2.2 2.2 0.35468 0.215076 -0.42589 
160 5.8 2.2 2.2 0.482064 0.483272 0.287694 
161 7 2.2 2.2 -0.120554 -0.0999059 0.0404333 
162 8.2 2.2 2.2 -0.380511 0.160081 -0.105232 
163 9.4 2.2 2.2 0.429542 0.283468 0.347419 
164 10.6 2.2 2.2 -0.345476 0.205645 0.250492 
165 11.8 2.2 2.2 0.0522722 -0.15545 -0.120949 
166 13 2.2 2.2 -0.0939115 0.437952 0.0136991 
167 14.2 2.2 2.2 0.119627 0.359489 -0.180795 
168 1 3.4 2.2 -0.276382 -0.207148 0.361305 
169 2.2 3.4 2.2 0.334874 0.45431 -0.230937 
170 3.4 3.4 2.2 -0.197125 -0.126915 -0.14695 
171 4.6 3.4 2.2 -0.397479 -0.398804 -0.0575922 
172 5.8 3.4 2.2 0.0490983 0.0107542 0.286901 
173 7 3.4 2.2 0.333989 -0.411653 -0.404221 
174 8.2 3.4 2.2 -0.233167 0.256398 0.0556315 
175 9.4 3.4 2.2 0.404334 -0.433229 0.134034 
176 10.6 3.4 2.2 -0.394214 -0.243526 0.37043 
177 11.8 3.4 2.2 0.416083 0.459285 0.285588 
178 13 3.4 2.2 -0.173076 -0.423616 -0.0715391 
179 14.2 3.4 2.2 0.285128 0.432337 -0.00403218 
180 1 4.6 2.2 -0.303024 0.293783 -0.199229 
181 2.2 4.6 2.2 -0.425495 -0.0931003 0.359443 
182 3.4 4.6 2.2 -0.201489 -0.248012 0.120819 
183 4.6 4.6 2.2 -0.420185 -0.155022 0.131226 
184 5.8 4.6 2.2 0.380346 0.349388 0.197939 
185 7 4.6 2.2 0.0484879 0.416284 0.254276 
186 8.2 4.6 2.2 0.194672 0.272725 -0.422288 
187 9.4 4.6 2.2 -0.287338 0.254353 -0.47536 
188 10.6 4.6 2.2 0.200836 0.289785 -0.0419362 
189 11.8 4.6 2.2 -0.337266 -0.0264174 0.13031 
190 13 4.6 2.2 -0.321213 0.216174 0.362587 
191 14.2 4.6 2.2 0.104215 0.0660232 0.456889 
192 1 5.8 2.2 0.323948 0.0966638 0.202059 
193 2.2 5.8 2.2 0.356816 0.353477 0.383644 
194 3.4 5.8 2.2 0.401892 -0.388672 0.442698 
195 4.6 5.8 2.2 0.189941 0.461452 0.420175 
196 5.8 5.8 2.2 -0.337083 0.359916 -0.328535 
197 7 5.8 2.2 -0.127665 -0.0679225 -0.417314 
198 8.2 5.8 2.2 0.0683249 -0.383881 0.0314914 
199 9.4 5.8 2.2 -0.231397 0.227375 0.00515389 
ITEM: TIMESTEP 
100
ITEM: NUMBER OF ATOMS
200
ITEM: BOX BOUNDS pp pp pp
0	15.1
0	15.1
0	15.1
ITEM: ATOMS id x y z vx vy vz
0 1.00574 1.00331 1.00422 0.0853768 0.0699906 0.0787141 
1 2.15548 1.02136 0.958591 -0.437251 0.248855 -0.370058 
2 3.44942 1.02015 1.04681 0.475978 0.232452 0.508274 
3 4.56359 0.997522 0.976266 -0.345552 0.0146805 -0.194167 
4 5.83041 0.967713 0.971476 0.298648 -0.283884 -0.241928 
5 6.99557 0.968548 0.99417 -0.0427447 -0.273838 -0.0164788 
6 8.1712 1.00446 0.967844 -0.28327 0.0814287 -0.276692 
7 9.44645 1.01051 1.03082 0.459064 0.144616 0.338152 
8 10.6159 0.958741 0.957559 0.153463 -0.373581 -0.379372 
9 11.7594 1.01967 0.999375 -0.39457 0.232021 0.034725 
10 13.0233 0.997455 0.961762 0.22132 0.0146451 -0.337887 
11 14.1636 0.990811 1.03502 -0.388576 -0.06035 0.386655 
12 0.96556 2.2454 0.989932 -0.305113 0.43502 -0.0590436 
13 2.16769 2.19139 1.00743 -0.322513 -0.0816221 0.123529 
14 3.39148 2.15827 0.961682 -0.0837882 -0.406525 -0.330916 
15 4.61444 2.2402 0.978575 0.142446 0.384793 -0.168683 
16 5.84064 2.24298 1.0256 0.39735 0.42339 0.302626 
17 6.98764 2.24374 0.955772 -0.113961 0.435664 -0.389377 
18 8.20679 2.19461 1.00904 0.0617644 -0.0494983 0.133523 
19 9.37335 2.23423 0.962673 -0.261009 0.332115 -0.320092 
20 10.5755 2.24284 1.03828 -0.244384 0.416495 0.427062 
21 11.8417 2.20094 1.01165 0.405042 0.00993912 0.160414 
22 12.9757 2.21996 1.01362 -0.231898 0.188775 0.181802 
23 14.1862 2.15942 0.964303 -0.177308 -0.399656 -0.312487 
24 1.04111 3.36306 1.02934 0.449291 -0.35312 0.335313 
25 2.23293 3.39988 0.996736 0.323411 0.000914805 0.0140026 
26 3.3861 3.36276 1.05338 -0.131373 -0.374709 0.568384 
27 4.59768 3.35877 0.981223 -0.024341 -0.395355 -0.136376 
28 5.81021 3.39494 1.03493 0.10411 -0.0456436 0.393738 
29 7.04977 3.43479 0.981589 0.490999 0.338084 -0.13883 
30 8.20777 3.41512 0.998278 0.0799999 0.151124 0.0315383 
31 9.396 3.36869 1.04486 -0.0363686 -0.302114 0.491427 
32 10.6115 3.37852 1.01628 0.113471 -0.203895 0.211395 
33 11.8299 3.37392 0.982537 0.296495 -0.260551 -0.123761 
34 12.9964 3.35333 1.04345 -0.0362032 -0.45482 0.473207 
35 14.1666 3.44885 0.975285 -0.36928 0.485802 -0.201824 
36 1.04618 4.58491 0.975431 0.480622 -0.150506 -0.202558 
37 2.15665 4.64646 1.01979 -0.413567 0.459994 0.247191 
38 3.39862 4.55651 1.03671 -0.0198427 -0.433402 0.411781 
39 4.57068 4.63938 1.04451 -0.288636 0.392366 0.48572 
40 5.77247 4.61215 0.974311 -0.271984 0.114684 -0.206372 
41 7.04134 4.57825 0.970225 0.405715 -0.205715 -0.247161 
42 8.19083 4.63647 0.98238 -0.0832359 0.355549 -0.129801 
43 9.41586 4.62414 1.01474 0.15443 0.231284 0.183254 
44 10.6077 4.59285 0.983494 0.0768854 -0.0812534 -0.120507 
45 11.8045 4.55943 0.975815 0.0454584 -0.406532 -0.195771 
46 13.0283 4.61106 1.004 0.268656 0.102418 0.0823692 
47 14.1527 4.64629 1.04208 -0.496224 0.453355 0.456246 
48 0.982052 5.79915 0.968713 -0.141873 -0.0129287 -0.273383 
49 2.16512 5.83483 1.04081 -0.348659 0.344328 0.44558 
50 3.35977 5.82727 0.963847 -0.398175 0.259449 -0.316322 
51 4.64915 5.84599 0.994175 0.478555 0.433894 -0.0138336 
52 5.77286 5.75746 1.0221 -0.25729 -0.422914 0.25521 
53 6.97983 5.79228 0.979185 -0.204882 -0.0878748 -0.167247 
54 8.15498 5.77955 0.995683 -0.446415 -0.202276 0.000675944 
55 9.39639 5.76829 0.969322 -0.040675 -0.315958 -0.264121 
56 10.6486 5.75383 1.0362 0.477251 -0.46217 0.370325 
57 11.8457 5.83732 1.03555 0.456192 0.365703 0.358278 
58 13.0247 5.81349 0.968847 0.243775 0.120067 -0.304171 
59 14.1774 5.80751 0.98289 -0.253279 0.0765808 -0.164708 
60 0.985142 7.04512 0.970256 -0.116421 0.442698 -0.292074 
61 2.17754 7.04541 0.976982 -0.223451 0.447264 -0.224216 
62 3.38072 6.97973 0.951701 -0.19482 -0.200267 -0.475668 
63 4.55317 6.9501 1.01062 -0.464574 -0.483613 0.112377 
64 5.83789 6.95094 1.04722 0.372355 -0.499575 0.47771 
65 7.00532 6.96069 1.01414 0.0550374 -0.397201 0.148737 
66 8.18823 7.00325 1.03786 -0.114835 0.0231679 0.382215 
67 9.43003 6.96887 1.00549 0.286211 -0.312873 0.0609444 
68 10.5636 7.04461 0.970932 -0.352063 0.427408 -0.287839 
69 11.7865 7.04596 1.00354 -0.135664 0.458465 0.0342513 
70 12.9909 6.95612 0.963832 -0.0911663 -0.429031 -0.358162 
71 14.2201 7.03005 1.04291 0.166895 0.296993 0.42604 
72 0.97128 8.22287 1.01373 -0.252894 0.232428 0.136305 
73 2.18173 8.24268 0.998166 -0.182597 0.411799 -0.0191802 
74 3.44453 8.18539 0.973409 0.428208 -0.144936 -0.265499 
75 4.56758 8.17545 0.996351 -0.309183 -0.24562 -0.0364916 
76 5.79016 8.16272 1.01553 -0.0986748 -0.371355 0.154992 
77 6.98838 8.15929 1.0308 -0.112994 -0.407352 0.306881 
78 8.24273 8.1897 1.00963 0.416306 -0.0985614 0.0974399 
79 9.38475 8.23112 1.04978 -0.140227 0.302147 0.494708 
80 10.6279 8.15859 0.982668 0.271681 -0.39766 -0.171385 
81 11.7824 8.22769 0.963047 -0.172771 0.273046 -0.366802 
82 12.9629 8.19815 1.04068 -0.367636 -0.0174109 0.402353 
83 14.2399 8.22037 1.00693 0.366066 0.197045 0.0700359 
84 1.01795 9.43352 1.0191 0.204364 0.330943 0.189843 
85 2.1639 9.3648 0.959347 -0.351126 -0.33451 -0.40439 
86 3.42803 9.42985 0.981111 0.278858 0.281123 -0.189352 
87 4.63741 9.4094 0.977763 0.372565 0.0940143 -0.222025 
88 5.83695 9.42687 0.975058 0.369941 0.264034 -0.247623 
89 7.04849 9.36795 1.01562 0.480172 -0.318624 0.155814 
90 8.21556 9.41737 1.011 0.15129 0.171259 0.109367 
91 9.35712 9.38183 1.00137 -0.420376 -0.174109 0.0142142 
92 10.5587 9.35071 1.0434 -0.410844 -0.491686 0.430868 
93 11.8148 9.38619 1.00993 0.142715 -0.132584 0.0984462 
94 12.9877 9.43524 0.962272 -0.12186 0.350464 -0.374097 
95 14.1708 9.36711 0.994032 -0.322314 -0.318823 -0.060096 
96 0.966161 10.6096 0.996403 -0.302833 0.0979342 -0.0351531 
97 2.23415 10.592 0.99857 0.33226 -0.0842857 -0.015088 
98 3.39026 10.5513 0.971867 -0.0891716 -0.468529 -0.28098 
99 4.61599 10.612 0.974223 0.151586 0.117275 -0.256964 
100 5.76524 10.597 0.986356 -0.339757 -0.032284 -0.135238 
101 7.00141 10.5959 1.03033 0.0115322 -0.0416941 0.300388 
102 8.19815 10.6199 0.969497 -0.0146659 0.19782 -0.302963 
103 9.44652 10.6294 0.958539 0.4573 0.288671 -0.412668 
104 10.611 10.6371 1.00549 0.113016 0.364361 0.05433 
105 11.7964 10.6355 1.00021 -0.0320469 0.353522 0.0025347 
106 13.0444 10.6446 1.00137 0.439599 0.439946 0.0127857 
107 14.2202 10.602 0.977431 0.170657 0.0178899 -0.22407 
108 1.02159 11.7993 1.03168 0.244132 -0.0089779 0.316043 
109 2.1839 11.7712 1.01246 -0.154495 -0.285768 0.123617 
110 3.41408 11.8247 0.957484 0.131185 0.232967 -0.42272 
111 4.56071 11.7869 1.00648 -0.384085 -0.129327 0.0646316 
112 5.77123 11.7527 1.04692 -0.286944 -0.465125 0.466403 
113 6.99445 11.829 0.979752 -0.0550804 0.276852 -0.199337 
114 8.23883 11.8106 1.00333 0.373188 0.102518 0.0325178 
115 9.36559 11.7959 0.960481 -0.328884 -0.0367274 -0.394355 
116 10.6232 11.7874 0.964689 0.226342 -0.120829 -0.351781 
117 11.7831 11.8174 1.02311 -0.16632 0.170075 0.228921 
118 12.9793 11.796 0.984728 -0.20827 -0.0320282 -0.150497 
119 14.1643 11.7902 1.04609 -0.388827 -0.0973011 0.457763 
120 1.03163 12.9728 1.04612 0.3481 -0.267723 0.458835 
121 2.2111 12.9574 1.00397 0.113208 -0.425951 0.0407971 
122 3.42271 12.9551 1.00485 0.227325 -0.437054 0.0475856 
123 4.62003 12.9744 1.02336 0.200295 -0.254966 0.232184 
124 5.84422 12.9691 1.04637 0.423047 -0.309544 0.46245 
125 6.95481 12.9569 1.04829 -0.430828 -0.417636 0.481301 
126 8.1909 12.9676 1.0432 -0.0939643 -0.318454 0.428649 
127 9.38378 13.0185 0.967327 -0.161012 0.183608 -0.324399 
128 10.6352 12.9747 0.966596 0.341757 -0.252607 -0.333095 
129 11.7758 12.9709 0.997842 -0.231759 -0.282676 -0.0210028 
130 12.9824 13.0251 1.0173 -0.178125 0.236066 0.171567 
131 14.1743 13.0021 0.982043 -0.289865 0.0220394 -0.178275 
132 1.01638 14.2167 0.954021 0.186951 0.136169 -0.456778 
133 2.16813 14.1672 1.04814 -0.311195 -0.360549 0.478146 
134 3.43676 14.1702 0.951314 0.36317 -0.331493 -0.48379 
135 4.6108 14.2009 0.961971 0.112667 -0.0246599 -0.377805 
136 5.84907 14.1837 1.02946 0.484079 -0.19585 0.293813 
137 7.00547 14.165 1.00565 0.0535527 -0.383021 0.0573373 
138 8.16075 14.1716 0.959542 -0.385324 -0.315932 -0.400945 
139 9.36763 14.2293 1.04492 -0.323135 0.260123 0.44578 
140 10.5932 14.175 0.980184 -0.068554 -0.28137 -0.19635 
141 11.8082 14.2134 1.02608 0.0793558 0.0984775 0.259473 
142 12.9886 14.1545 1.00516 -0.113644 -0.474326 0.0514647 
143 14.1705 14.2178 0.959574 -0.322657 0.147702 -0.402804 
144 1.03092 0.998459 2.1934 0.330627 0.0208406 -0.102834 
145 2.16083 1.0431 2.16165 -0.37854 0.468992 -0.425056 
146 3.42792 1.02999 2.23786 0.275576 0.330854 0.335775 
147 4.60416 0.983277 2.20108 0.0416534 -0.124229 -0.0328893 
148 5.80798 0.966089 2.19426 0.0786451 -0.295441 -0.0992967 
149 6.98206 1.00216 2.20462 -0.179193 0.0610282 0.0034081 
150 8.15827 1.00493 2.19473 -0.415402 0.0918345 -0.096652 
151 9.37054 1.03927 2.16925 -0.292779 0.43196 -0.338371 
152 10.5923 0.963671 2.21239 -0.0777575 -0.318955 0.0786551 
153 11.8046 0.969593 2.19421 0.0463475 -0.26215 -0.0986292 
154 13.0255 0.965971 2.21335 0.254835 -0.2957 0.0893125 
155 14.2383 1.05034 2.23795 0.348202 0.536148 0.340762 
156 1.04048 2.18983 2.18436 0.442572 -0.102159 -0.198988 
157 2.23848 2.19954 2.23549 0.382843 0.00213742 0.30353 
158 3.41991 2.16594 2.19721 0.202326 -0.327958 -0.078764 
159 4.63541 2.22109 2.1529 0.353127 0.201262 -0.514195 
160 5.84783 2.248 2.22398 0.469453 0.473723 0.19097 
161 6.98819 2.18998 2.19917 -0.111999 -0.101201 -0.0583932 
162 8.16222 2.21606 2.18492 -0.37358 0.161646 -0.194908 
163 9.4423 2.22803 2.22972 0.408076 0.2713 0.24477 
164 10.566 2.22029 2.22042 -0.326792 0.197108 0.158609 
165 11.8051 2.18468 2.18332 0.0503081 -0.149476 -0.211306 
166 12.9907 2.24306 2.19663 -0.0917724 0.413035 -0.0815386 
167 14.2081 2.23602 2.17776 0.0417854 0.361565 -0.263998 
168 0.976291 3.37949 2.23185 -0.196532 -0.201634 0.274269 
169 2.23309 3.44497 2.17232 0.322838 0.440205 -0.321424 
170 3.3805 3.38722 2.18105 -0.189769 -0.129365 -0.224885 
171 4.56042 3.36052 2.18943 -0.393023 -0.385371 -0.15469 
172 5.8049 3.40127 2.22394 0.0488913 0.0170761 0.191535 
173 7.03294 3.35908 2.15503 0.319374 -0.405519 -0.493494 
174 8.1772 3.42556 2.20072 -0.2175 0.254146 -0.0426569 
175 9.43974 3.35724 2.2088 0.38123 -0.414763 0.0433298 
176 10.5613 3.37594 2.23219 -0.371326 -0.234502 0.271821 
177 11.8412 3.44539 2.22363 0.402672 0.443318 0.185081 
178 12.9831 3.35842 2.18844 -0.159246 -0.39701 -0.15548 
179 14.2246 3.44298 2.19539 0.204784 0.424339 -0.0887479 
180 0.973527 4.62906 2.17598 -0.225917 0.285011 -0.280757 
181 2.15765 4.59116 2.23108 -0.419882 -0.078165 0.260747 
182 3.37964 4.57503 2.20752 -0.20774 -0.253032 0.0313258 
183 4.55818 4.58464 2.20861 -0.41551 -0.151332 0.0432004 
184 5.83764 4.63493 2.2149 0.369448 0.349583 0.0985999 
185 7.00521 4.64115 2.22044 0.0597065 0.402329 0.152217 
186 8.21909 4.6269 2.15317 0.182365 0.259465 -0.513007 
187 9.37123 4.62488 2.14821 -0.283956 0.243135 -0.553768 
188 10.6192 4.62571 2.191 0.177194 0.223606 -0.139142 
189 11.7666 4.59412 2.20825 -0.325455 -0.0870493 0.0342143 
190 12.968 4.61781 2.23142 -0.317698 0.138289 0.264532 
191 14.207 4.60372 2.24149 0.0350096 0.0111952 0.372366 
192 1.03602 5.80656 2.21589 0.396654 0.0349767 0.114468 
193 2.23565 5.83156 2.23369 0.355716 0.275849 0.29048 
194 3.44005 5.75772 2.23944 0.397735 -0.45557 0.345801 
195 4.61885 5.84242 2.23709 0.184593 0.386087 0.319727 
196 5.76668 5.83246 2.1627 -0.324475 0.289766 -0.413726 
197 6.98721 5.78993 2.15362 -0.128469 -0.129701 -0.509618 
198 8.20658 5.75846 2.19832 0.060516 -0.440687 -0.0664064 
199 9.37429 5.81909 2.19564 -0.28135 0.153535 -0.0939726 
ITEM: TIMESTEP 
200
ITEM: NUMBER OF ATOMS
200
ITEM: BOX BOUNDS pp pp pp
0	15.1
0	15.1
0	15.1
ITEM: ATOMS id x y z vx vy vz
0 1.01582 1.01412 1.01568 0.106078 0.146485 0.150159 
1 2.11358 1.04927 0.926026 -0.392143 0.306091 -0.282173 
2 3.49158 1.04501 1.102 0.340384 0.254534 0.600644 
3 4.53486 1.00281 0.960854 -0.199512 0.0895924 -0.118245 
4 5.85922 0.942948 0.951674 0.274112 -0.213223 -0.154024 
5 6.99178 0.945105 0.996692 -0.0305015 -0.196182 0.0669776 
6 8.14352 1.01612 0.944839 -0.269698 0.150963 -0.182825 
7 9.49177 1.02891 1.06528 0.449186 0.222492 0.332584 
8 10.6296 0.924841 0.924101 0.112101 -0.307783 -0.290877 
9 11.7226 1.04618 1.00689 -0.332528 0.297624 0.115488 
10 13.0425 1.00307 0.932336 0.150157 0.098323 -0.25239 
11 14.1241 0.987495 1.07746 -0.385878 -0.0090688 0.464169 
12 0.938786 2.28331 0.987951 -0.233491 0.297883 0.0169615 
13 2.13546 2.1843 1.02484 -0.322648 -0.0562016 0.22578 
14 3.38327 2.12063 0.93397 -0.0811022 -0.3327 -0.223876 
15 4.62838 2.27291 0.96575 0.136392 0.237444 -0.0926518 
16 5.87811 2.28378 1.06047 0.343583 0.385673 0.394705 
17 6.97868 2.28731 0.92239 -0.0561287 0.437116 -0.277645 
18 8.21167 2.19046 1.02604 0.0324013 -0.0320195 0.201666 
19 9.34846 2.26448 0.936017 -0.233581 0.259626 -0.214476 
20 10.5507 2.28136 1.085 -0.254647 0.339552 0.504651 
21 11.8788 2.2019 1.03139 0.321713 0.00815231 0.228708 
22 12.956 2.23544 1.03589 -0.14398 0.103065 0.25948 
23 14.1644 2.12042 0.937656 -0.259146 -0.378469 -0.219985 
24 1.09017 3.33285 1.06717 0.535464 -0.226896 0.422951 
25 2.26373 3.40021 1.00237 0.286959 0.00541695 0.0942223 
26 3.37489 3.3247 1.11 -0.0853325 -0.389416 0.529108 
27 4.59496 3.32468 0.973046 -0.0316478 -0.256123 -0.0256882 
28 5.82083 3.39189 1.0783 0.107918 -0.00776592 0.470643 
29 7.09732 3.46585 0.971773 0.454539 0.270987 -0.0612678 
30 8.21664 3.4302 1.00636 0.102526 0.150389 0.130133 
31 9.39307 3.3414 1.09748 -0.0207391 -0.231275 0.554435 
32 10.6227 3.36146 1.04225 0.110604 -0.1208 0.307377 
33 11.8589 3.34804 0.975385 0.279316 -0.255852 -0.0189225 
34 12.9929 3.31121 1.09264 -0.0327203 -0.371446 0.492424 
35 14.1264 3.49741 0.959862 -0.432793 0.487696 -0.105692 
36 1.09112 4.56959 0.959281 0.378094 -0.16035 -0.123804 
37 2.12214 4.69213 1.04982 -0.237519 0.457741 0.357532 
38 3.3956 4.51305 1.08172 -0.0418542 -0.438133 0.482878 
39 4.5428 4.67881 1.09599 -0.266482 0.398772 0.535217 
40 5.74558 4.62152 0.958784 -0.266756 0.0622317 -0.104576 
41 7.08016 4.56079 0.950619 0.363993 -0.130407 -0.145086 
42 8.18475 4.66944 0.973522 -0.0289683 0.292012 -0.0528072 
43 9.43082 4.64475 1.03374 0.146404 0.170229 0.170062 
44 10.6154 4.58305 0.975984 0.0762151 -0.119071 -0.0297641 
45 11.8091 4.51881 0.961118 0.0466648 -0.405915 -0.0970776 
46 13.0503 4.62033 1.01625 0.142039 0.0813334 0.160177 
47 14.1042 4.69013 1.09124 -0.446269 0.421092 0.528212 
48 0.971598 5.79729 0.945406 -0.0675343 -0.0252659 -0.192652 
49 2.13035 5.86902 1.08865 -0.346151 0.340183 0.508647 
50 3.32026 5.85096 0.936702 -0.393487 0.207978 -0.227193 
51 4.69397 5.882 0.997189 0.40741 0.252504 0.0728713 
52 5.7515 5.71652 1.04919 -0.148499 -0.390347 0.270013 
53 6.95858 5.78182 0.966103 -0.222728 -0.124898 -0.0990792 
54 8.11095 5.76114 1.00032 -0.43382 -0.154144 0.093094 
55 9.39171 5.7383 0.947497 -0.0543547 -0.27272 -0.171565 
56 10.6954 5.70783 1.07399 0.460415 -0.456323 0.38556 
57 11.8911 5.87341 1.07138 0.451249 0.358281 0.357254 
58 13.0479 5.82223 0.939306 0.212028 0.042088 -0.286012 
59 14.1506 5.81614 0.96714 -0.272811 0.100477 -0.149946 
60 0.976566 7.08834 0.941613 -0.0560201 0.421199 -0.280611 
61 2.15546 7.08935 0.955184 -0.217222 0.430831 -0.211532 
62 3.36074 6.96133 0.904985 -0.206551 -0.158455 -0.45826 
63 4.50652 6.90836 1.02261 -0.475805 -0.314403 0.128543 
64 5.87402 6.8997 1.09559 0.347748 -0.527392 0.490499 
65 7.01139 6.9209 1.0299 0.0690289 -0.396388 0.167243 
66 8.17717 7.00439 1.07624 -0.105923 -0.00114757 0.384657 
67 9.45506 6.93727 1.01236 0.200146 -0.321879 0.0779579 
68 10.5315 7.08177 0.942466 -0.279184 0.286923 -0.282454 
69 11.7728 7.09155 1.00675 -0.137864 0.452382 0.0293556 
70 12.9816 6.91583 0.928713 -0.096895 -0.365459 -0.34262 
71 14.2334 7.05912 1.08491 0.0989696 0.283291 0.41276 
72 0.949561 8.24689 1.02717 -0.1809 0.250105 0.131935 
73 2.16328 8.27884 0.996259 -0.187499 0.284645 -0.0172273 
74 3.48217 8.17098 0.946839 0.298074 -0.143588 -0.266963 
75 4.54168 8.15077 0.992801 -0.181521 -0.249082 -0.0332614 
76 5.7803 8.12556 1.03098 -0.098078 -0.373217 0.153914 
77 6.97749 8.11849 1.06127 -0.10497 -0.408838 0.301935 
78 8.28161 8.18056 1.01952 0.350554 -0.0837076 0.0999634 
79 9.37382 8.25943 1.09879 -0.0661233 0.258244 0.485837 
80 10.6538 8.12462 0.965993 0.245546 -0.249589 -0.160258 
81 11.7661 8.25402 0.926828 -0.148675 0.249892 -0.35713 
82 12.9264 8.19664 1.08006 -0.363255 -0.0122218 0.383568 
83 14.2736 8.23816 1.01409 0.309932 0.150418 0.0736629 
84 1.03948 9.46582 1.03795 0.216547 0.313901 0.187628 
85 2.13098 9.33665 0.919071 -0.29967 -0.20263 -0.403244 
86 3.4561 9.4526 0.962131 0.286027 0.146753 -0.18991 
87 4.67439 9.41894 0.95563 0.366519 0.0979472 -0.220452 
88 5.87404 9.45253 0.950642 0.372067 0.248111 -0.239953 
89 7.09535 9.33636 1.03113 0.452678 -0.313214 0.154092 
90 8.22906 9.43421 1.02183 0.108797 0.16622 0.107294 
91 9.31771 9.36613 1.00282 -0.354591 -0.134217 0.0140867 
92 10.5178 9.30131 1.08588 -0.408502 -0.49864 0.417473 
93 11.8283 9.37415 1.01966 0.126923 -0.10408 0.0964603 
94 12.9758 9.47007 0.925468 -0.114435 0.346715 -0.360752 
95 14.1357 9.33767 0.987928 -0.377726 -0.261125 -0.0623033 
96 0.939399 10.6198 0.993041 -0.233179 0.107842 -0.0317718 
97 2.26546 10.5828 0.996929 0.28801 -0.101863 -0.0178261 
98 3.38311 10.5098 0.943773 -0.0492104 -0.334598 -0.281505 
99 4.62894 10.6231 0.948669 0.0980659 0.102725 -0.253927 
100 5.73334 10.5929 0.973028 -0.289298 -0.0539289 -0.131224 
101 7.00222 10.5916 1.05979 0.00473284 -0.0444927 0.287554 
102 8.19721 10.6395 0.939612 -0.00412501 0.194 -0.293723 
103 9.49071 10.6574 0.917617 0.422818 0.270158 -0.405274 
104 10.6231 10.672 1.01088 0.130922 0.326246 0.0540576 
105 11.7938 10.6707 1.00053 -0.0180809 0.350298 0.00383241 
106 13.0877 10.687 1.0025 0.425452 0.400198 0.00977001 
107 14.2344 10.6035 0.955334 0.116451 0.0114391 -0.217204 
108 1.04801 11.7979 1.06315 0.278246 -0.0206709 0.313167 
109 2.16998 11.7431 1.02461 -0.117909 -0.276025 0.118794 
110 3.42474 11.8441 0.915473 0.0720924 0.137632 -0.418972 
111 4.52463 11.7743 1.013 -0.328018 -0.12152 0.066587 
112 5.74261 11.7081 1.09306 -0.285803 -0.420328 0.455666 
113 6.98903 11.8528 0.960242 -0.052656 0.181322 -0.191752 
114 8.27167 11.8198 1.00655 0.26188 0.0760887 0.0329637 
115 9.33712 11.7931 0.921062 -0.21919 -0.0162522 -0.39546 
116 10.6447 11.7769 0.929674 0.200272 -0.0821391 -0.349032 
117 11.7673 11.8331 1.04565 -0.144154 0.137855 0.221585 
118 12.9581 11.7948 0.97009 -0.218641 0.0158786 -0.141539 
119 14.1223 11.7805 1.09124 -0.450421 -0.0984362 0.443774 
120 1.06944 12.9469 1.09156 0.406554 -0.247881 0.449042 
121 2.22294 12.9149 1.00826 0.125667 -0.423656 0.0454742 
122 3.44555 12.9152 1.00957 0.230143 -0.343168 0.0482103 
123 4.63999 12.9491 1.04629 0.198424 -0.251292 0.225772 
124 5.87948 12.9381 1.09235 0.240619 -0.310526 0.456418 
125 6.91898 12.9191 1.09632 -0.244956 -0.318209 0.481153 
126 8.18103 12.9372 1.08543 -0.104297 -0.284553 0.414596 
127 9.36766 13.0366 0.935356 -0.162757 0.17734 -0.313836 
128 10.6666 12.9495 0.933406 0.273945 -0.250338 -0.331043 
129 11.7556 12.9446 0.995889 -0.15855 -0.234979 -0.0173671 
130 12.9642 13.044 1.03421 -0.186933 0.117076 0.166546 
131 14.142 13.0045 0.964472 -0.35759 0.0256509 -0.172544 
132 1.03645 14.2273 0.908806 0.208521 0.0776248 -0.447382 
133 2.13849 14.1278 1.09541 -0.277426 -0.430238 0.467026 
134 3.47245 14.1336 0.903486 0.350032 -0.400274 -0.471774 
135 4.62295 14.195 0.924653 0.132157 -0.0927716 -0.36755 
136 5.89584 14.1608 1.05869 0.444404 -0.264131 0.290558 
137 7.01062 14.1233 1.01155 0.0493476 -0.452699 0.0612746 
138 8.1241 14.1368 0.920096 -0.33989 -0.379774 -0.38688 
139 9.33536 14.2519 1.08879 -0.322453 0.190852 0.429744 
140 10.5863 14.1438 0.960883 -0.0673264 -0.340641 -0.188947 
141 11.8156 14.2195 1.05174 0.0667123 0.0232176 0.252982 
142 12.9774 14.1082 1.01021 -0.10962 -0.424728 0.0488322 
143 14.1356 14.2294 0.919551 -0.374882 0.0841087 -0.397131 
144 1.0633 1.00392 2.17969 0.294033 0.085728 -0.168506 
145 2.12679 1.09335 2.11487 -0.282224 0.534155 -0.512455 
146 3.45501 1.06371 2.26734 0.265977 0.323554 0.256543 
147 4.60841 0.975166 2.19331 0.044033 -0.0381742 -0.123002 
148 5.81547 0.940713 2.18021 0.0693577 -0.213641 -0.181401 
149 6.9642 1.01193 2.20067 -0.177895 0.132636 -0.0822679 
150 8.11721 1.01846 2.18057 -0.404013 0.179133 -0.187089 
151 9.34137 1.08622 2.13467 -0.293006 0.506466 -0.334527 
152 10.5844 0.936248 2.21563 -0.0811975 -0.22969 -0.0142664 
153 11.8092 0.947578 2.18047 0.0449845 -0.178112 -0.175073 
154 13.051 0.940811 2.21784 0.256473 -0.208114 0.000434666 
155 14.2695 1.1068 2.26804 0.275488 0.590702 0.260633 
156 1.08855 2.17955 2.16015 0.51923 -0.103112 -0.28562 
157 2.27642 2.20121 2.26049 0.375813 0.0361192 0.195886 
158 3.44076 2.13699 2.1839 0.215907 -0.230572 -0.190134 
159 4.67071 2.23866 2.09784 0.354565 0.13967 -0.581786 
160 5.8922 2.29408 2.23818 0.406121 0.443479 0.0938397 
161 6.97894 2.17944 2.1882 -0.063397 -0.112133 -0.161683 
162 8.1254 2.23248 2.1616 -0.362406 0.167894 -0.266865 
163 9.47848 2.25174 2.24888 0.290141 0.182437 0.139241 