#Initializing at default lattice positions

2 atoms

1 atom types

0	50.1 xlo xhi
0	50.1 ylo yhi
0	50.1 zlo zhi

Atoms

  1  1                25.05                25.05                25.05
  2  1                26.05                25.05                25.05
