#Initializing at default lattice positions

200 atoms

1 atom types

0	15.1 xlo xhi
0	15.1 ylo yhi
0	15.1 zlo zhi

Atoms

  1  1                    1                    1                    1
  2  1                  2.2                    1                    1
  3  1                  3.4                    1                    1
  4  1                  4.6                    1                    1
  5  1                  5.8                    1                    1
  6  1                    7                    1                    1
  7  1                  8.2                    1                    1
  8  1                  9.4                    1                    1
  9  1                 10.6                    1                    1
 10  1                 11.8                    1                    1
 11  1                   13                    1                    1
 12  1                 14.2                    1                    1
 13  1                    1                  2.2                    1
 14  1                  2.2                  2.2                    1
 15  1                  3.4                  2.2                    1
 16  1                  4.6                  2.2                    1
 17  1                  5.8                  2.2                    1
 18  1                    7                  2.2                    1
 19  1                  8.2                  2.2                    1
 20  1                  9.4                  2.2                    1
 21  1                 10.6                  2.2                    1
 22  1                 11.8                  2.2                    1
 23  1                   13                  2.2                    1
 24  1                 14.2                  2.2                    1
 25  1                    1                  3.4                    1
 26  1                  2.2                  3.4                    1
 27  1                  3.4                  3.4                    1
 28  1                  4.6                  3.4                    1
 29  1                  5.8                  3.4                    1
 30  1                    7                  3.4                    1
 31  1                  8.2                  3.4                    1
 32  1                  9.4                  3.4                    1
 33  1                 10.6                  3.4                    1
 34  1                 11.8                  3.4                    1
 35  1                   13                  3.4                    1
 36  1                 14.2                  3.4                    1
 37  1                    1                  4.6                    1
 38  1                  2.2                  4.6                    1
 39  1                  3.4                  4.6                    1
 40  1                  4.6                  4.6                    1
 41  1                  5.8                  4.6                    1
 42  1                    7                  4.6                    1
 43  1                  8.2                  4.6                    1
 44  1                  9.4                  4.6                    1
 45  1                 10.6                  4.6                    1
 46  1                 11.8                  4.6                    1
 47  1                   13                  4.6                    1
 48  1                 14.2                  4.6                    1
 49  1                    1                  5.8                    1
 50  1                  2.2                  5.8                    1
 51  1                  3.4                  5.8                    1
 52  1                  4.6                  5.8                    1
 53  1                  5.8                  5.8                    1
 54  1                    7                  5.8                    1
 55  1                  8.2                  5.8                    1
 56  1                  9.4                  5.8                    1
 57  1                 10.6                  5.8                    1
 58  1                 11.8                  5.8                    1
 59  1                   13                  5.8                    1
 60  1                 14.2                  5.8                    1
 61  1                    1                    7                    1
 62  1                  2.2                    7                    1
 63  1                  3.4                    7                    1
 64  1                  4.6                    7                    1
 65  1                  5.8                    7                    1
 66  1                    7                    7                    1
 67  1                  8.2                    7                    1
 68  1                  9.4                    7                    1
 69  1                 10.6                    7                    1
 70  1                 11.8                    7                    1
 71  1                   13                    7                    1
 72  1                 14.2                    7                    1
 73  1                    1                  8.2                    1
 74  1                  2.2                  8.2                    1
 75  1                  3.4                  8.2                    1
 76  1                  4.6                  8.2                    1
 77  1                  5.8                  8.2                    1
 78  1                    7                  8.2                    1
 79  1                  8.2                  8.2                    1
 80  1                  9.4                  8.2                    1
 81  1                 10.6                  8.2                    1
 82  1                 11.8                  8.2                    1
 83  1                   13                  8.2                    1
 84  1                 14.2                  8.2                    1
 85  1                    1                  9.4                    1
 86  1                  2.2                  9.4                    1
 87  1                  3.4                  9.4                    1
 88  1                  4.6                  9.4                    1
 89  1                  5.8                  9.4                    1
 90  1                    7                  9.4                    1
 91  1                  8.2                  9.4                    1
 92  1                  9.4                  9.4                    1
 93  1                 10.6                  9.4                    1
 94  1                 11.8                  9.4                    1
 95  1                   13                  9.4                    1
 96  1                 14.2                  9.4                    1
 97  1                    1                 10.6                    1
 98  1                  2.2                 10.6                    1
 99  1                  3.4                 10.6                    1
100  1                  4.6                 10.6                    1
101  1                  5.8                 10.6                    1
102  1                    7                 10.6                    1
103  1                  8.2                 10.6                    1
104  1                  9.4                 10.6                    1
105  1                 10.6                 10.6                    1
106  1                 11.8                 10.6                    1
107  1                   13                 10.6                    1
108  1                 14.2                 10.6                    1
109  1                    1                 11.8                    1
110  1                  2.2                 11.8                    1
111  1                  3.4                 11.8                    1
112  1                  4.6                 11.8                    1
113  1                  5.8                 11.8                    1
114  1                    7                 11.8                    1
115  1                  8.2                 11.8                    1
116  1                  9.4                 11.8                    1
117  1                 10.6                 11.8                    1
118  1                 11.8                 11.8                    1
119  1                   13                 11.8                    1
120  1                 14.2                 11.8                    1
121  1                    1                   13                    1
122  1                  2.2                   13                    1
123  1                  3.4                   13                    1
124  1                  4.6                   13                    1
125  1                  5.8                   13                    1
126  1                    7                   13                    1
127  1                  8.2                   13                    1
128  1                  9.4                   13                    1
129  1                 10.6                   13                    1
130  1                 11.8                   13                    1
131  1                   13                   13                    1
132  1                 14.2                   13                    1
133  1                    1                 14.2                    1
134  1                  2.2                 14.2                    1
135  1                  3.4                 14.2                    1
136  1                  4.6                 14.2                    1
137  1                  5.8                 14.2                    1
138  1                    7                 14.2                    1
139  1                  8.2                 14.2                    1
140  1                  9.4                 14.2                    1
141  1                 10.6                 14.2                    1
142  1                 11.8                 14.2                    1
143  1                   13                 14.2                    1
144  1                 14.2                 14.2                    1
145  1                    1                    1                  2.2
146  1                  2.2                    1                  2.2
147  1                  3.4                    1                  2.2
148  1                  4.6                    1                  2.2
149  1                  5.8                    1                  2.2
150  1                    7                    1                  2.2
151  1                  8.2                    1                  2.2
152  1                  9.4                    1                  2.2
153  1                 10.6                    1                  2.2
154  1                 11.8                    1                  2.2
155  1                   13                    1                  2.2
156  1                 14.2                    1                  2.2
157  1                    1                  2.2                  2.2
158  1                  2.2                  2.2                  2.2
159  1                  3.4                  2.2                  2.2
160  1                  4.6                  2.2                  2.2
161  1                  5.8                  2.2                  2.2
162  1                    7                  2.2                  2.2
163  1                  8.2                  2.2                  2.2
164  1                  9.4                  2.2                  2.2
165  1                 10.6                  2.2                  2.2
166  1                 11.8                  2.2                  2.2
167  1                   13                  2.2                  2.2
168  1                 14.2                  2.2                  2.2
169  1                    1                  3.4                  2.2
170  1                  2.2                  3.4                  2.2
171  1                  3.4                  3.4                  2.2
172  1                  4.6                  3.4                  2.2
173  1                  5.8                  3.4                  2.2
174  1                    7                  3.4                  2.2
175  1                  8.2                  3.4                  2.2
176  1                  9.4                  3.4                  2.2
177  1                 10.6                  3.4                  2.2
178  1                 11.8                  3.4                  2.2
179  1                   13                  3.4                  2.2
180  1                 14.2                  3.4                  2.2
181  1                    1                  4.6                  2.2
182  1                  2.2                  4.6                  2.2
183  1                  3.4                  4.6                  2.2
184  1                  4.6                  4.6                  2.2
185  1                  5.8                  4.6                  2.2
186  1                    7                  4.6                  2.2
187  1                  8.2                  4.6                  2.2
188  1                  9.4                  4.6                  2.2
189  1                 10.6                  4.6                  2.2
190  1                 11.8                  4.6                  2.2
191  1                   13                  4.6                  2.2
192  1                 14.2                  4.6                  2.2
193  1                    1                  5.8                  2.2
194  1                  2.2                  5.8                  2.2
195  1                  3.4                  5.8                  2.2
196  1                  4.6                  5.8                  2.2
197  1                  5.8                  5.8                  2.2
198  1                    7                  5.8                  2.2
199  1                  8.2                  5.8                  2.2
200  1                  9.4                  5.8                  2.2
